[Molden Format]
made by pyscf v[2.8.0]
[Atoms] (AU)
C   1   6     0.00000000000000     2.62574799391741     0.00000000000000
C   2   6     2.27396413747288     1.31287399695870     0.00000000000000
C   3   6     2.27396413747288    -1.31287399695870     0.00000000000000
C   4   6     0.00000000000000    -2.62574799391741     0.00000000000000
C   5   6    -2.27396413747288    -1.31287399695870     0.00000000000000
C   6   6    -2.27396413747288     1.31287399695870     0.00000000000000
H   7   1     0.00000000000000     4.66816020989508     0.00000000000000
H   8   1     4.04274590033965     2.33408010494754     0.00000000000000
H   9   1     4.04274590033965    -2.33408010494754     0.00000000000000
H   10   1     0.00000000000000    -4.66816020989508     0.00000000000000
H   11   1    -4.04274590033965    -2.33408010494754     0.00000000000000
H   12   1    -4.04274590033965     2.33408010494754     0.00000000000000
[GTO]
1 0
 s    3 1.00
             71.616837    0.15432897000916
             13.045096    0.53532814003178
             3.5305122     0.4446345400264
 s    3 1.00
             2.9412494  -0.099967230075964
             0.6834831    0.39951283030359
             0.2222899    0.70011547053201
 p    3 1.00
             2.9412494    0.15591627210511
             0.6834831    0.60768372820466
             0.2222899    0.39195739529202

2 0
 s    3 1.00
             71.616837    0.15432897000916
             13.045096    0.53532814003178
             3.5305122     0.4446345400264
 s    3 1.00
             2.9412494  -0.099967230075964
             0.6834831    0.39951283030359
             0.2222899    0.70011547053201
 p    3 1.00
             2.9412494    0.15591627210511
             0.6834831    0.60768372820466
             0.2222899    0.39195739529202

3 0
 s    3 1.00
             71.616837    0.15432897000916
             13.045096    0.53532814003178
             3.5305122     0.4446345400264
 s    3 1.00
             2.9412494  -0.099967230075964
             0.6834831    0.39951283030359
             0.2222899    0.70011547053201
 p    3 1.00
             2.9412494    0.15591627210511
             0.6834831    0.60768372820466
             0.2222899    0.39195739529202

4 0
 s    3 1.00
             71.616837    0.15432897000916
             13.045096    0.53532814003178
             3.5305122     0.4446345400264
 s    3 1.00
             2.9412494  -0.099967230075964
             0.6834831    0.39951283030359
             0.2222899    0.70011547053201
 p    3 1.00
             2.9412494    0.15591627210511
             0.6834831    0.60768372820466
             0.2222899    0.39195739529202

5 0
 s    3 1.00
             71.616837    0.15432897000916
             13.045096    0.53532814003178
             3.5305122     0.4446345400264
 s    3 1.00
             2.9412494  -0.099967230075964
             0.6834831    0.39951283030359
             0.2222899    0.70011547053201
 p    3 1.00
             2.9412494    0.15591627210511
             0.6834831    0.60768372820466
             0.2222899    0.39195739529202

6 0
 s    3 1.00
             71.616837    0.15432897000916
             13.045096    0.53532814003178
             3.5305122     0.4446345400264
 s    3 1.00
             2.9412494  -0.099967230075964
             0.6834831    0.39951283030359
             0.2222899    0.70011547053201
 p    3 1.00
             2.9412494    0.15591627210511
             0.6834831    0.60768372820466
             0.2222899    0.39195739529202

7 0
 s    3 1.00
            3.42525091    0.15432897070298
            0.62391373    0.53532814243847
             0.1688554    0.44463454202535

8 0
 s    3 1.00
            3.42525091    0.15432897070298
            0.62391373    0.53532814243847
             0.1688554    0.44463454202535

9 0
 s    3 1.00
            3.42525091    0.15432897070298
            0.62391373    0.53532814243847
             0.1688554    0.44463454202535

10 0
 s    3 1.00
            3.42525091    0.15432897070298
            0.62391373    0.53532814243847
             0.1688554    0.44463454202535

11 0
 s    3 1.00
            3.42525091    0.15432897070298
            0.62391373    0.53532814243847
             0.1688554    0.44463454202535

12 0
 s    3 1.00
            3.42525091    0.15432897070298
            0.62391373    0.53532814243847
             0.1688554    0.44463454202535

[5d]
[7f]
[9g]

[MO]
 Sym= A
 Ene=    -11.02918139
 Spin= Alpha
 Occup=    2.00000
   1     -0.57301677248418
   2    -0.016873623925134
   3    -3.3228925162716e-09
   4    -0.00051591639591532
   5    1.8503304177406e-16
   6     -0.28650611662977
   7    -0.0084367010710292
   8    -0.0018611728622522
   9    0.0027077096644032
  10    1.0028600058848e-16
  11      0.28650698857037
  12    0.0084367267468564
  13    0.0018611718807989
  14    0.0027077063942513
  15    1.1785571536804e-17
  16       0.5730167725066
  17     0.016873623926088
  18    -3.3228796254923e-09
  19    -0.00051591639584831
  20    -9.0312081166898e-20
  21      0.28650611662213
  22    0.0084367010706669
  23    -0.0018611728623485
  24     0.002707709664499
  25    1.1486183119121e-18
  26      -0.2865069885812
  27    -0.0084367267473586
  28    0.0018611718806993
  29    0.0027077063941714
  30    -8.2681209333501e-19
  31    0.0038207896279476
  32    0.0019103773974738
  33    -0.0019103832114351
  34    -0.0038207896281042
  35    -0.0019103773974206
  36    0.0019103832115107
 Sym= A
 Ene=    -11.02918139
 Spin= Alpha
 Occup=    2.00000
   1    -5.0339035389557e-07
   2    -1.4823661340261e-08
   3    0.0037822564568363
   4    -4.5309823525628e-10
   5    1.1815528311798e-17
   6     -0.49624627506014
   7    -0.014612937087984
   8    0.00055862090858055
   9    -0.0018611637664499
  10    -1.2014049416767e-16
  11     -0.49624577162742
  12     -0.01461292226331
  13    0.00055862417883628
  14    0.0018611685242245
  15    8.1316687344707e-17
  16    5.0345715250104e-07
  17    1.4825075861062e-08
  18    0.0037822564566878
  19    -4.5338715585261e-10
  20    -1.831156222738e-16
  21      0.49624627511547
  22     0.014612937088897
  23    0.00055862090834802
  24    -0.0018611637667034
  25    -3.2096446720204e-17
  26      0.49624577172037
  27      0.01461292226587
  28    0.00055862417864085
  29    0.0018611685242851
  30    1.2506842109704e-17
  31    3.356522299699e-09
  32    0.0033088928938493
  33    0.0033088895370363
  34    -3.3569880136239e-09
  35    -0.003308892894235
  36    -0.0033088895376847
 Sym= A
 Ene=    -11.02916713
 Spin= Alpha
 Occup=    2.00000
   1      0.40540551446992
   2    0.0092129810249975
   3    -2.9645918384616e-13
   4    0.0015394078623717
   5    9.6536011612421e-18
   6      0.40540073837381
   7    0.0092127692173402
   8    0.0013331894025976
   9    0.00076969534679136
  10    6.8153522693211e-18
  11      0.40540073837157
  12    0.0092127692171658
  13    0.0013331894026398
  14    -0.00076969534678438
  15    -5.0359205908795e-18
  16      0.40540551447893
  17    0.0092129810255093
  18    -3.722836571103e-13
  19    -0.0015394078623031
  20    -1.4359900857229e-18
  21      0.40540073827424
  22    0.0092127692141617
  23    -0.001333189402748
  24    -0.00076969534650455
  25    2.642898167403e-19
  26      0.40540073829562
  27    0.0092127692151759
  28    -0.0013331894026871
  29    0.00076969534641308
  30    -1.1338314580905e-18
  31    -0.0028271351447494
  32    -0.0028271001406453
  33    -0.0028271001406275
  34    -0.0028271351448153
  35    -0.0028271001399755
  36    -0.0028271001401271
 Sym= A
 Ene=    -11.02879479
 Spin= Alpha
 Occup=    2.00000
   1      0.57259862824551
   2     0.025102658770534
   3    -4.6023122038122e-14
   4    -0.0019530240916066
   5    8.3425394005494e-17
   6     -0.28630269616209
   7    -0.012551405050698
   8    0.0025449336034338
   9    -0.0024549556821665
  10    6.9575927890289e-17
  11     -0.28630269620685
  12    -0.012551405052663
  13    0.0025449336034785
  14    0.0024549556819294
  15    1.2933314641269e-18
  16      0.57259862824294
  17     0.025102658770879
  18    7.8121088422517e-14
  19    0.0019530240917386
  20    4.674479118201e-19
  21     -0.28630269618695
  22    -0.012551405051851
  23    -0.0025449336034583
  24    0.0024549556819939
  25    8.1705997694192e-19
  26      -0.2863026961735
  27     -0.01255140505126
  28    -0.0025449336034444
  29    -0.0024549556820704
  30    -1.7050990345557e-18
  31    -0.0040003366190329
  32    0.0020001909029149
  33     0.002000190903229
  34    -0.004000336619026
  35    0.0020001909030914
  36    0.0020001909029961
 Sym= A
 Ene=    -11.02879479
 Spin= Alpha
 Occup=    2.00000
   1    2.9455103551535e-12
   2    9.2627898736463e-14
   3    -0.0039242731078268
   4    2.6972200065941e-15
   5    2.4359023948021e-16
   6      0.49588691094043
   7     0.021739580413374
   8    -0.00048369437408065
   9    -0.0025449409044973
  10    -1.9162143904857e-16
  11      -0.4958869109424
  12    -0.021739580413354
  13    0.00048369437404825
  14    -0.0025449409045191
  15    -2.7663578927574e-16
  16    -1.31973767758e-11
  17    -7.069855656034e-13
  18    0.0039242731079704
  19    -8.8569117452631e-14
  20    -3.5037025013393e-16
  21      0.49588691097264
  22     0.021739580414647
  23    0.00048369437418441
  24    0.0025449409044619
  25    -2.4580964561787e-16
  26     -0.49588691093695
  27    -0.021739580413518
  28    -0.00048369437410774
  29    0.0025449409046246
  30    9.8702540702695e-18
  31    -2.2074652641693e-14
  32    -0.0034644047075453
  33     0.003464404707553
  34    9.3645334236868e-14
  35    -0.0034644047077681
  36    0.0034644047075249
 Sym= A
 Ene=    -11.02863583
 Spin= Alpha
 Occup=    2.00000
   1     -0.40473380138084
   2    -0.021096375672917
   3    -8.9932765310878e-14
   4     0.002475285424062
   5    -2.4165716251427e-16
   6      0.40473639779311
   7     0.021096448782635
   8    -0.0021436537973522
   9    -0.0012376497499213
  10    1.7044643882835e-16
  11     -0.40473639778548
  12    -0.021096448782148
  13    0.0021436537971938
  14    -0.0012376497500336
  15    6.8355468409586e-19
  16      0.40473380134371
  17     0.021096375671519
  18    4.8678540052726e-14
  19    0.0024752854240139
  20    -6.8463268535466e-19
  21     -0.40473639777337
  22    -0.021096448781539
  23    -0.0021436537971828
  24    -0.0012376497499235
  25    -6.61362215099e-19
  26      0.40473639777018
  27     0.021096448781707
  28     0.002143653797329
  29    -0.0012376497498519
  30    -1.5834429819176e-18
  31    0.0029275363372844
  32    -0.0029275520395044
  33    0.0029275520394524
  34    -0.0029275363370253
  35    0.0029275520393662
  36    -0.0029275520393459
 Sym= A
 Ene=    -1.093847378
 Spin= Alpha
 Occup=    2.00000
   1     -0.10483712742756
   2      0.26392653871777
   3    -1.2613842373472e-15
   4    -0.062300204297466
   5    4.8637632659375e-16
   6     -0.10483710285273
   7      0.26392648970337
   8    -0.053953573692611
   9    -0.031150082236653
  10    -7.4190966250428e-17
  11     -0.10483710285274
  12      0.26392648970338
  13    -0.053953573692612
  14     0.031150082236653
  15    1.5428637336766e-17
  16     -0.10483712742756
  17      0.26392653871778
  18    1.8402761278093e-15
  19      0.06230020429747
  20    5.0259680338064e-17
  21     -0.10483710285273
  22      0.26392648970338
  23     0.053953573692612
  24     0.031150082236652
  25    4.8021380735133e-17
  26     -0.10483710285273
  27      0.26392648970338
  28     0.053953573692611
  29    -0.031150082236654
  30    1.1645793248229e-16
  31     0.046833854441407
  32     0.046833808748493
  33     0.046833808748493
  34      0.04683385444141
  35     0.046833808748493
  36     0.046833808748494
 Sym= A
 Ene=   -0.9573163294
 Spin= Alpha
 Occup=    2.00000
   1      0.14671738102631
   2     -0.39424466525816
   3    9.1823392583334e-10
   4     0.027860622177656
   5    -2.7080480783577e-16
   6     0.073358677801213
   7     -0.19712230495952
   8     0.068760852446711
   9    -0.091236609849708
  10    -3.7960261262333e-16
  11    -0.073358679583331
  12      0.19712230974825
  13    -0.068760852280668
  14    -0.091236608885293
  15    -8.0335644511335e-17
  16     -0.14671738102631
  17      0.39424466525816
  18    9.1823538343569e-10
  19     0.027860622177653
  20    4.0602696687251e-17
  21     -0.07335867780121
  22      0.19712230495951
  23     0.068760852446711
  24    -0.091236609849713
  25    -8.639468503892e-17
  26     0.073358679583334
  27     -0.19712230974826
  28    -0.068760852280669
  29     -0.09123660888529
  30    -5.7076023479501e-17
  31     -0.10875561774035
  32    -0.054377755226466
  33     0.054377756547479
  34      0.10875561774035
  35     0.054377755226466
  36    -0.054377756547481
 Sym= A
 Ene=    -0.957316233
 Spin= Alpha
 Occup=    2.00000
   1    -1.028908606261e-09
   2    2.7647841359178e-09
   3      0.13093573710406
   4    -1.9538366609562e-10
   5    9.6387367894782e-16
   6     -0.12706096781392
   7      0.34142590800437
   8     0.011838446881418
   9    -0.068760828948944
  10    -4.4151010082159e-16
  11     -0.12706096678501
  12       0.3414259052396
  13      0.01183844784584
  14     0.068760830228605
  15    7.3968562638876e-16
  16    1.0289091046364e-09
  17    -2.7647855801093e-09
  18      0.13093573710406
  19    -1.9538164084487e-10
  20    5.847538649688e-16
  21      0.12706096781392
  22     -0.34142590800437
  23     0.011838446881418
  24    -0.068760828948943
  25    2.9448240603526e-17
  26      0.12706096678501
  27     -0.34142590523959
  28     0.011838447845839
  29     0.068760830228603
  30    2.7740914792665e-16
  31    7.6268757086812e-10
  32     0.094185089956859
  33     0.094185089194173
  34    -7.6268845734889e-10
  35    -0.094185089956859
  36    -0.094185089194172
 Sym= A
 Ene=   -0.7688906465
 Spin= Alpha
 Occup=    2.00000
   1      -0.1142968174601
   2       0.3353231648028
   3    2.8893427275337e-09
   4      0.08421221481824
   5    -9.8484614531936e-16
   6     0.057148412635243
   7     -0.16766161476025
   8     -0.13687509099494
   9      0.15286274098743
  10    -5.8128542695888e-16
  11     0.057148415101945
  12     -0.16766162199704
  13      -0.1368750911242
  14     -0.15286273757647
  15    -2.4973568921505e-16
  16     -0.11429681746009
  17       0.3353231648028
  18    -2.8893426931851e-09
  19    -0.084212214818249
  20    -7.3511236364527e-17
  21     0.057148412635246
  22     -0.16766161476026
  23      0.13687509099494
  24     -0.15286274098742
  25    -2.3393442586078e-16
  26     0.057148415101943
  27     -0.16766162199704
  28       0.1368750911242
  29      0.15286273757647
  30    -4.3027193306266e-16
  31      0.17788017160754
  32    -0.088939986640931
  33    -0.088939990479857
  34      0.17788017160755
  35    -0.088939986640937
  36    -0.088939990479855
 Sym= A
 Ene=   -0.7688905871
 Spin= Alpha
 Occup=    2.00000
   1    1.4241486557107e-09
   2    -4.1781557429055e-09
   3      0.23188770413518
   4    -1.0492945615339e-09
   5    7.0199963288442e-16
   6     -0.09898395702001
   7       0.2903984387987
   8    0.0051871172561595
   9      0.13687518325233
  10    1.1314982177316e-15
  11      0.09898395559586
  12     -0.29039843462054
  13    -0.005187113845207
  14      0.13687518706171
  15    1.0455063389183e-16
  16    1.4241491943825e-09
  17    -4.1781576361516e-09
  18     -0.23188770413519
  19    1.0492939086342e-09
  20    2.0223779327488e-16
  21     -0.09898395702001
  22       0.2903984387987
  23    -0.005187117256158
  24     -0.13687518325234
  25    -2.1348952186914e-16
  26     0.098983955595861
  27     -0.29039843462054
  28    0.0051871138452085
  29     -0.13687518706171
  30    4.284581509605e-16
  31    -2.2164045125308e-09
  32      0.15404862827481
  33     -0.15404862605841
  34    -2.2164062289722e-09
  35      0.15404862827481
  36     -0.15404862605841
 Sym= A
 Ene=   -0.6652893632
 Spin= Alpha
 Occup=    2.00000
   1    0.0091032781617435
   2    -0.037160253384448
   3    -1.0384718816998e-14
   4     -0.23420123569669
   5    1.8675173351515e-15
   6    0.0091033463504388
   7    -0.037160470172479
   8     -0.20282424876268
   9     -0.11710042072677
  10    4.6517921711057e-17
  11     0.009103346350432
  12    -0.037160470172458
  13     -0.20282424876268
  14      0.11710042072676
  15    -4.3939054975994e-15
  16    0.0091032781617459
  17    -0.037160253384456
  18    -3.5732715844907e-15
  19      0.23420123569671
  20    -6.8632835080892e-15
  21    0.0091033463504322
  22     -0.03716047017246
  23       0.2028242487627
  24      0.11710042072677
  25    -4.9437225790635e-15
  26    0.0091033463504357
  27    -0.037160470172472
  28       0.2028242487627
  29     -0.11710042072678
  30    -8.340412297337e-16
  31     -0.17494206002013
  32     -0.17494207920726
  33     -0.17494207920725
  34     -0.17494206002016
  35     -0.17494207920727
  36     -0.17494207920727
 Sym= A
 Ene=   -0.5950596346
 Spin= Alpha
 Occup=    2.00000
   1    -0.065235597768104
   2      0.21845731482744
   3    -2.5175879704091e-15
   4      0.16444622853185
   5    -1.2482423976448e-15
   6     0.065235676759694
   7     -0.21845760135622
   8     -0.14241396293538
   9    -0.082222860057196
  10    -2.1436477787403e-15
  11    -0.065235676759691
  12      0.21845760135622
  13       0.1424139629354
  14    -0.082222860057233
  15    -2.5641088238107e-15
  16     0.065235597768101
  17     -0.21845731482743
  18    2.3973103817426e-15
  19      0.16444622853184
  20    -2.7825996852621e-15
  21    -0.065235676759693
  22      0.21845760135622
  23     -0.14241396293539
  24    -0.082222860057212
  25    -2.1246747884198e-15
  26     0.065235676759691
  27     -0.21845760135621
  28       0.1424139629354
  29    -0.082222860057213
  30    -1.2059172484795e-15
  31      0.23207482987043
  32     -0.23207435934018
  33       0.2320743593402
  34     -0.23207482987042
  35      0.23207435934019
  36     -0.23207435934019
 Sym= A
 Ene=   -0.5560383628
 Spin= Alpha
 Occup=    2.00000
   1    -1.1503055477673e-16
   2    2.0375375578786e-15
   3       0.3321431814749
   4    -5.06941080204e-15
   5    -7.1090403010396e-16
   6    -2.9391210428524e-08
   7    7.6848736989497e-08
   8     -0.16607178794119
   9      0.28764408532411
  10    -8.2279220644125e-16
  11    -2.9391208895463e-08
  12    7.6848735526487e-08
  13      -0.1660717879412
  14      -0.2876440853241
  15    -7.3263652846184e-16
  16    5.5671569681371e-17
  17    -4.4359192831637e-16
  18      0.33214318147491
  19    -4.2328322983297e-15
  20    -2.2149433404829e-15
  21    2.9391209869335e-08
  22    -7.6848736353456e-08
  23      -0.1660717879412
  24      0.28764408532411
  25    -1.8838801938235e-15
  26    2.9391210139159e-08
  27    -7.6848740824893e-08
  28     -0.16607178794119
  29     -0.28764408532411
  30    -7.6604883956932e-16
  31    -2.330168180003e-15
  32    -3.0526958151724e-07
  33    -3.0526959454064e-07
  34    5.433815589096e-15
  35    3.0526958302864e-07
  36    3.052695821236e-07
 Sym= A
 Ene=   -0.5360002209
 Spin= Alpha
 Occup=    2.00000
   1     0.026801644117962
   2    -0.084315390660557
   3    -4.1709781692475e-15
   4      0.36962870761994
   5    -3.6859721427319e-15
   6     0.013400712689384
   7    -0.042157291921083
   8      0.20419194033017
   9     0.015958475419653
  10    -5.0522073573746e-15
  11    -0.013400712689381
  12     0.042157291921075
  13     -0.20419194033014
  14     0.015958475419605
  15    -5.6244058643734e-15
  16    -0.026801644117964
  17     0.084315390660563
  18    -6.0984935356551e-15
  19      0.36962870761994
  20    -6.2005800400464e-15
  21    -0.013400712689384
  22     0.042157291921081
  23      0.20419194033017
  24     0.015958475419633
  25    -5.3434778798695e-15
  26     0.013400712689382
  27    -0.042157291921075
  28     -0.20419194033014
  29     0.015958475419624
  30    -3.5967007676687e-15
  31      0.28239824831329
  32      0.14119957313938
  33     -0.14119957313935
  34     -0.28239824831329
  35     -0.14119957313937
  36      0.14119957313935
 Sym= A
 Ene=   -0.5360000735
 Spin= Alpha
 Occup=    2.00000
   1    -4.9116852353793e-18
   2    3.7783677935217e-16
   3     -0.10193138677103
   4    -1.4862906355047e-14
   5    -3.4323210858706e-15
   6     0.023210853261641
   7    -0.073019087053639
   8      0.25173854438533
   9      0.20419209396674
  10    -8.5185927736257e-16
  11     0.023210853261648
  12    -0.073019087053661
  13      0.25173854438534
  14     -0.20419209396673
  15    -2.7097968201248e-15
  16    -9.6033457700364e-16
  17    5.8434705941675e-15
  18     -0.10193138677104
  19    -3.6675397926188e-14
  20    -2.2027141631155e-15
  21    -0.023210853261642
  22     0.073019087053638
  23      0.25173854438531
  24      0.20419209396674
  25    -8.5727799512844e-16
  26    -0.023210853261648
  27     0.073019087053664
  28      0.25173854438533
  29     -0.20419209396674
  30    -1.6774815017614e-15
  31    -1.9011093083456e-14
  32      0.24456435902054
  33      0.24456435902055
  34    2.969426171677e-14
  35     -0.24456435902053
  36     -0.24456435902054
 Sym= A
 Ene=   -0.4593519759
 Spin= Alpha
 Occup=    2.00000
   1    3.3167748556424e-19
   2    4.3691668532096e-17
   3    1.3933710070383e-15
   4    3.1994053933433e-15
   5      0.33364349732393
   6    1.2580820373759e-15
   7    -3.8832319512857e-15
   8    1.1989896187523e-16
   9    1.608710699045e-15
  10      0.33364344344221
  11    -7.5261453534848e-16
  12    2.8158996960214e-15
  13    -1.306488790753e-15
  14    -3.572352321525e-15
  15      0.33364344344221
  16    1.2880388656776e-16
  17    -1.752350802911e-15
  18    -4.5452755469314e-16
  19    8.3075781760172e-15
  20      0.33364349732393
  21    -6.790217148836e-16
  22    3.9381406605969e-15
  23    5.7696470906869e-15
  24    8.6736893910085e-16
  25      0.33364344344219
  26    4.0748841659321e-16
  27    -1.5560087638815e-15
  28    -1.6820357456783e-15
  29    -2.6991176282741e-15
  30      0.33364344344219
  31    4.9349882067125e-15
  32    -3.4324140791768e-16
  33    -1.4304656858963e-15
  34    -6.5711777954414e-15
  35    -6.1965412263794e-15
  36    -1.0659366278246e-15
 Sym= A
 Ene=   -0.4339695906
 Spin= Alpha
 Occup=    2.00000
   1    -0.0077893261998136
   2     0.016641682438233
   3    1.5388631270246e-14
   4       -0.282570482661
   5    2.8506051559083e-15
   6    0.0038946544315932
   7    -0.0083208064547385
   8    -0.022256002547526
   9      0.32111924033381
  10    2.5716760536566e-15
  11     0.003894654431595
  12    -0.0083208064547392
  13    -0.022256002547505
  14      -0.3211192403338
  15    -1.5233991563743e-15
  16    -0.0077893261998139
  17     0.016641682438233
  18    -7.7159559618911e-15
  19      0.28257048266098
  20    -3.7672451022066e-15
  21    0.0038946544315939
  22    -0.0083208064547366
  23     0.022256002547525
  24     -0.32111924033379
  25    -3.1553222538544e-15
  26    0.0038946544315932
  27    -0.0083208064547354
  28      0.02225600254751
  29      0.32111924033379
  30    2.8840323931405e-17
  31     -0.29822845270854
  32      0.14911430827278
  33       0.1491143082728
  34     -0.29822845270852
  35      0.14911430827278
  36      0.14911430827279
 Sym= A
 Ene=    -0.433969584
 Spin= Alpha
 Occup=    2.00000
   1    -1.0531114289645e-17
   2    1.4799782238047e-16
   3      0.33396868139962
   4    7.6727796065084e-15
   5    -2.3017023954228e-16
   6    -0.0067457304682071
   7     0.014411993223763
   8     -0.29542007752232
   9     0.022256073322264
  10    -8.5150921018549e-16
  11    0.0067457304682068
  12    -0.014411993223764
  13      0.29542007752231
  14      0.02225607332228
  15    -2.5645186085673e-15
  16    1.6005576283394e-16
  17    -2.3885719217035e-16
  18     -0.33396868139962
  19    -7.0110277621077e-15
  20    -2.028650576204e-15
  21    -0.0067457304682073
  22     0.014411993223764
  23      0.29542007752231
  24    -0.022256073322259
  25    -2.1709288655164e-15
  26    0.0067457304682079
  27    -0.014411993223768
  28     -0.29542007752232
  29    -0.022256073322288
  30    -2.5576360960858e-16
  31    1.0908396175975e-14
  32     -0.25827353151545
  33      0.25827353151544
  34    7.7859531084328e-15
  35     -0.25827353151545
  36      0.25827353151544
 Sym= A
 Ene=   -0.2817849608
 Spin= Alpha
 Occup=    2.00000
   1    -1.6286419280465e-17
   2    2.8580610195645e-16
   3    -8.6356012665737e-16
   4    4.2176090272816e-15
   5      0.53140486300354
   6    -5.7786810874817e-16
   7    1.5341985719143e-15
   8    3.0660240745292e-15
   9    -1.3543320096051e-15
  10      0.26570243858914
  11    7.091683930975e-16
  12    -2.9693345680953e-15
  13    6.4245862299209e-16
  14    2.3940653744569e-15
  15     -0.26570242712206
  16    -6.4171728513778e-16
  17    3.5599747471024e-15
  18    3.113092121238e-17
  19    -4.8485495721815e-15
  20     -0.53140486300353
  21    5.2330549597731e-16
  22    -4.3512015153053e-15
  23    -1.5180672554736e-15
  24    2.3070993975371e-15
  25     -0.26570243858914
  26    -2.3546667442243e-16
  27    3.2089757484479e-15
  28    -1.1552747944495e-15
  29    -3.3075705650224e-16
  30      0.26570242712206
  31    1.0556669636282e-15
  32    -3.3366338124536e-16
  33    3.1296204392026e-15
  34    3.351008404789e-15
  35    3.847251187568e-15
  36    -2.0442480079531e-15
 Sym= A
 Ene=   -0.2817848716
 Spin= Alpha
 Occup=    2.00000
   1    3.2468295732756e-17
   2    -2.3495777636205e-16
   3    1.1204853782167e-16
   4    -1.9624709378497e-15
   5    6.6205299862714e-09
   6    1.0083494164273e-16
   7    -1.1659905944531e-15
   8    -1.2475656392155e-15
   9    1.2826646508671e-15
  10     -0.46021012917617
  11    1.959014226949e-16
  12    -2.5992454680484e-16
  13    -6.6668620906209e-16
  14    3.3692243725737e-16
  15      -0.4602101357967
  16    1.2311143859374e-16
  17    4.6218079024083e-17
  18    -1.2392008582866e-16
  19    6.0334475487424e-16
  20    -6.6205156063348e-09
  21    2.0233694759314e-17
  22    -3.9950547117997e-16
  23    -3.4054294911697e-16
  24    2.034130995575e-16
  25      0.46021012917619
  26    2.4898879250682e-16
  27    -1.2854567928331e-15
  28    4.9109815713146e-16
  29    3.6951131858021e-16
  30       0.4602101357967
  31    -6.7038149895904e-16
  32    1.7407311408798e-15
  33    3.679275345927e-16
  34    1.9857393029942e-18
  35    1.0684690434894e-15
  36    1.0242211737243e-15
 Sym= A
 Ene=    0.2699569393
 Spin= Alpha
 Occup=    0.00000
   1    -4.033902701798e-17
   2    3.2358621822615e-16
   3    1.3564906041435e-15
   4    1.4316091855096e-15
   5    -2.0173493437097e-08
   6    -4.4490875740029e-16
   7    2.1106412600505e-15
   8    1.3930170218681e-15
   9    -4.2278358378431e-16
  10      0.57087440939468
  11    -1.4108037472587e-16
  12    8.9302919786399e-17
  13    1.9577198251338e-16
  14    -6.1908944100202e-16
  15      -0.5708743892212
  16    -1.0572381098371e-16
  17    1.0738573286423e-16
  18    1.658291833585e-15
  19    -2.441337160963e-16
  20    -2.0173460697771e-08
  21    -1.290601379386e-17
  22    6.8444977548606e-16
  23    -3.5150114469208e-16
  24    -1.229632318466e-15
  25      0.57087440939466
  26    -1.7540734176638e-16
  27    2.0127098231227e-15
  28    -7.9192729947317e-16
  29    5.9809523343718e-16
  30     -0.57087438922118
  31    -8.9064595286727e-16
  32    -2.6111171921394e-15
  33    -1.3726397158053e-15
  34    -4.9497590723177e-16
  35    -6.8020221860642e-16
  36    -1.6183705433485e-15
 Sym= A
 Ene=    0.2699569774
 Spin= Alpha
 Occup=    0.00000
   1    7.131412206824e-17
   2    -4.3117977909134e-16
   3    -6.1728176470163e-16
   4    -1.8333186156392e-15
   5      0.65918897992303
   6    5.8794428819814e-16
   7    -3.4426492886125e-15
   8    -6.5577737039056e-16
   9    7.857980807002e-16
  10      -0.3295945074478
  11    -1.793330807014e-17
  12    6.872327906139e-16
  13    -1.1477704176259e-15
  14    7.7407958481854e-16
  15      -0.3295945423893
  16    4.4059680060122e-17
  17    1.3947788744028e-17
  18    -1.6030817740712e-15
  19    2.811145268834e-16
  20      0.65918897992305
  21    2.8841820320021e-16
  22    -1.980137872025e-15
  23    -1.1350002568231e-16
  24    1.6207344462311e-15
  25     -0.32959450744781
  26    7.8835213911551e-17
  27    -9.129083955154e-16
  28    4.9748345072459e-16
  29    -9.8240227136169e-16
  30     -0.32959454238929
  31    1.9456942333967e-15
  32    2.7944662243403e-15
  33    1.3423627404572e-15
  34    6.0766929579966e-16
  35    1.3510521656229e-15
  36    6.1956530446258e-16
 Sym= A
 Ene=    0.5071251005
 Spin= Alpha
 Occup=    0.00000
   1    4.2838824668954e-16
   2    -2.744402141086e-15
   3    -2.4095364358347e-15
   4    -4.6181241032444e-15
   5      0.52366591525901
   6    1.0305005550903e-15
   7    -6.1360940777246e-15
   8    -5.5018269445244e-15
   9    -1.0066234509402e-15
  10     -0.52366588406179
  11    6.2948005414375e-16
  12    -2.9908561469114e-15
  13    -4.6087200171385e-15
  14    2.5316322995345e-15
  15      0.52366588406178
  16    3.2162398576572e-16
  17    -2.0504650405506e-15
  18    -3.1831445355729e-15
  19    2.3373842465048e-15
  20     -0.52366591525899
  21    3.0039386759668e-16
  22    -2.8920082622422e-15
  23    2.3545400918522e-16
  24    2.2898994728158e-15
  25      0.52366588406181
  26    7.9827029283488e-16
  27    -5.1931790274751e-15
  28    5.9536553629451e-16
  29    -1.946517973719e-15
  30     -0.52366588406182
  31    5.989147057704e-15
  32    9.1190424812013e-15
  33    7.5481431421935e-15
  34    3.8654399537291e-15
  35    2.6213866468099e-15
  36    4.1606375940664e-15
 Sym= A
 Ene=    0.5815773082
 Spin= Alpha
 Occup=    0.00000
   1     0.052686941276367
   2     -0.33592472060582
   3    -2.0799409746804e-14