[Molden Format]
[Title]
CLPOs

[Atoms] AU
C    1   6          0.0000000000         2.6257479939         0.0000000000 
C    2   6          2.2739641375         1.3128739970         0.0000000000 
C    3   6          2.2739641375        -1.3128739970         0.0000000000 
C    4   6          0.0000000000        -2.6257479939         0.0000000000 
C    5   6         -2.2739641375        -1.3128739970         0.0000000000 
C    6   6         -2.2739641375         1.3128739970         0.0000000000 
H    7   1          0.0000000000         4.6681602099         0.0000000000 
H    8   1          4.0427459003         2.3340801049         0.0000000000 
H    9   1          4.0427459003        -2.3340801049         0.0000000000 
H   10   1          0.0000000000        -4.6681602099         0.0000000000 
H   11   1         -4.0427459003        -2.3340801049         0.0000000000 
H   12   1         -4.0427459003         2.3340801049         0.0000000000 
[GTO]
  1 0 
s   3 1.0  
       71.6168370000         0.1543289700 
       13.0450960000         0.5353281400 
        3.5305122000         0.4446345400 
s   3 1.0  
        2.9412494000        -0.0999672301 
        0.6834831000         0.3995128303 
        0.2222899000         0.7001154705 
p   3 1.0  
        2.9412494000         0.1559162721 
        0.6834831000         0.6076837282 
        0.2222899000         0.3919573953 

  2 0 
s   3 1.0  
       71.6168370000         0.1543289700 
       13.0450960000         0.5353281400 
        3.5305122000         0.4446345400 
s   3 1.0  
        2.9412494000        -0.0999672301 
        0.6834831000         0.3995128303 
        0.2222899000         0.7001154705 
p   3 1.0  
        2.9412494000         0.1559162721 
        0.6834831000         0.6076837282 
        0.2222899000         0.3919573953 

  3 0 
s   3 1.0  
       71.6168370000         0.1543289700 
       13.0450960000         0.5353281400 
        3.5305122000         0.4446345400 
s   3 1.0  
        2.9412494000        -0.0999672301 
        0.6834831000         0.3995128303 
        0.2222899000         0.7001154705 
p   3 1.0  
        2.9412494000         0.1559162721 
        0.6834831000         0.6076837282 
        0.2222899000         0.3919573953 

  4 0 
s   3 1.0  
       71.6168370000         0.1543289700 
       13.0450960000         0.5353281400 
        3.5305122000         0.4446345400 
s   3 1.0  
        2.9412494000        -0.0999672301 
        0.6834831000         0.3995128303 
        0.2222899000         0.7001154705 
p   3 1.0  
        2.9412494000         0.1559162721 
        0.6834831000         0.6076837282 
        0.2222899000         0.3919573953 

  5 0 
s   3 1.0  
       71.6168370000         0.1543289700 
       13.0450960000         0.5353281400 
        3.5305122000         0.4446345400 
s   3 1.0  
        2.9412494000        -0.0999672301 
        0.6834831000         0.3995128303 
        0.2222899000         0.7001154705 
p   3 1.0  
        2.9412494000         0.1559162721 
        0.6834831000         0.6076837282 
        0.2222899000         0.3919573953 

  6 0 
s   3 1.0  
       71.6168370000         0.1543289700 
       13.0450960000         0.5353281400 
        3.5305122000         0.4446345400 
s   3 1.0  
        2.9412494000        -0.0999672301 
        0.6834831000         0.3995128303 
        0.2222899000         0.7001154705 
p   3 1.0  
        2.9412494000         0.1559162721 
        0.6834831000         0.6076837282 
        0.2222899000         0.3919573953 

  7 0 
s   3 1.0  
        3.4252509100         0.1543289707 
        0.6239137300         0.5353281424 
        0.1688554000         0.4446345420 

  8 0 
s   3 1.0  
        3.4252509100         0.1543289707 
        0.6239137300         0.5353281424 
        0.1688554000         0.4446345420 

  9 0 
s   3 1.0  
        3.4252509100         0.1543289707 
        0.6239137300         0.5353281424 
        0.1688554000         0.4446345420 

 10 0 
s   3 1.0  
        3.4252509100         0.1543289707 
        0.6239137300         0.5353281424 
        0.1688554000         0.4446345420 

 11 0 
s   3 1.0  
        3.4252509100         0.1543289707 
        0.6239137300         0.5353281424 
        0.1688554000         0.4446345420 

 12 0 
s   3 1.0  
        3.4252509100         0.1543289707 
        0.6239137300         0.5353281424 
        0.1688554000         0.4446345420 

[5D]
[9G]
[MO]
 Sym=     1a
 Ene=  0.00000000000000E+00
 Spin= Alpha
 Occup= 1.989445
  1      -0.075091825286
  2       0.328376712027
  3       0.396442748613
  4      -0.230738143605
  5       0.000000000000
  6      -0.075091834136
  7       0.328376722601
  8      -0.398046420686
  9       0.227960467504
 10       0.000000000000
 11       0.008421941362
 12      -0.031785572585
 13       0.057754927327
 14      -0.040294463070
 15      -0.000000000000
 16       0.000880492921
 17       0.006173163464
 18       0.004329162491
 19      -0.003958303164
 20       0.000000000000
 21       0.000880493691
 22       0.006173158319
 23      -0.005592577775
 24       0.001770011648
 25      -0.000000000000
 26       0.008421946179
 27      -0.031785602041
 28      -0.063773538658
 29       0.029870005831
 30      -0.000000000000
 31      -0.045526823751
 32      -0.045526770555
 33      -0.007919470002
 34      -0.002070068869
 35      -0.002070069227
 36      -0.007919482204
 Sym=     1a
 Ene=  1.00000000000000E+00
 Spin= Alpha
 Occup= 0.010454
  1      -0.145956214877
  2       0.986889217944
  3       0.895346082725
  4      -0.519007719467
  5       0.000000000000
  6       0.145956222284
  7      -0.986889230419
  8       0.897146806443
  9      -0.515888704118
 10      -0.000000000000
 11      -0.004899876942
 12       0.023909641373
 13      -0.085282302550
 14       0.020665786075
 15       0.000000000000
 16       0.000528164508
 17      -0.017336296892
 18      -0.011721089101
 19      -0.006634448226
 20       0.000000000000
 21      -0.000528166308
 22       0.017336298825
 23      -0.000114934611
 24       0.013467989480
 25      -0.000000000000
 26       0.004899878646
 27      -0.023909670928
 28      -0.060538290992
 29       0.063523744531
 30       0.000000000000
 31      -0.018538150632
 32       0.018538126385
 33       0.007531232415
 34       0.000531163500
 35      -0.000531161222
 36      -0.007531245180
 Sym=     1a
 Ene=  2.00000000000000E+00
 Spin= Alpha
 Occup= 1.999951
  1       1.007893044673
  2      -0.016997875605
  3      -0.000000000013
  4       0.000510147593
  5      -0.000000000000
  6       0.004292366258
  7      -0.017416999679
  8       0.022145807444
  9      -0.012129790861
 10       0.000000000000
 11      -0.000308358862
 12       0.000971475396
 13      -0.003549794110
 14       0.000795575086
 15      -0.000000000000
 16      -0.000073481463
 17      -0.001018965967
 18       0.000000000000
 19       0.000319597619
 20       0.000000000000
 21      -0.000308358862
 22       0.000971475395
 23       0.003549794110
 24       0.000795575085
 25      -0.000000000000
 26       0.004292366259
 27      -0.017416999684
 28      -0.022145807448
 29      -0.012129790865
 30       0.000000000000
 31      -0.023625180247
 32       0.000046459020
 33       0.000397634185
 34       0.000216025536
 35       0.000397634185
 36       0.000046459019
 Sym=     1a
 Ene=  3.00000000000000E+00
 Spin= Alpha
 Occup= 1.989445
  1       0.075091825297
  2      -0.328376712027
  3       0.396442748590
  4       0.230738143599
  5      -0.000000000000
  6      -0.008421946180
  7       0.031785602051
  8      -0.063773538661
  9      -0.029870005827
 10       0.000000000000
 11      -0.000880493691
 12      -0.006173158319
 13      -0.005592577775
 14      -0.001770011648
 15       0.000000000000
 16      -0.000880492921
 17      -0.006173163465
 18       0.004329162491
 19       0.003958303163
 20       0.000000000000
 21      -0.008421941364
 22       0.031785572607
 23       0.057754927327
 24       0.040294463088
 25      -0.000000000000
 26       0.075091834115
 27      -0.328376722634
 28      -0.398046420696
 29      -0.227960467495
 30      -0.000000000000
 31       0.045526823754
 32       0.007919482204
 33       0.002070069227
 34       0.002070068869
 35       0.007919470001
 36       0.045526770565
 Sym=     1a
 Ene=  4.00000000000000E+00
 Spin= Alpha
 Occup= 0.010454
  1      -0.145956214890
  2       0.986889217964
  3      -0.895346082716
  4      -0.519007719472
  5       0.000000000000
  6       0.004899878647
  7      -0.023909670935
  8       0.060538290997
  9       0.063523744528
 10       0.000000000000
 11      -0.000528166308
 12       0.017336298825
 13       0.000114934610
 14       0.013467989480
 15      -0.000000000000
 16       0.000528164508
 17      -0.017336296893
 18       0.011721089102
 19      -0.006634448227
 20      -0.000000000000
 21      -0.004899876943
 22       0.023909641379
 23       0.085282302551
 24       0.020665786081
 25       0.000000000000
 26       0.145956222261
 27      -0.986889230393
 28      -0.897146806457
 29      -0.515888704111
 30      -0.000000000000
 31      -0.018538150635
 32      -0.007531245180
 33      -0.000531161222
 34       0.000531163500
 35       0.007531232414
 36       0.018538126384
 Sym=     1a
 Ene=  5.00000000000000E+00
 Spin= Alpha
 Occup= 1.989787
  1      -0.073821051114
  2       0.326914072969
  3       0.000000000004
  4       0.492956630334
  5      -0.000000000000
  6       0.007558747037
  7      -0.024240351253
  8       0.004644541847
  9      -0.069638029679
 10      -0.000000000000
 11      -0.000395842844
 12      -0.008111623451
 13      -0.007204814615
 14      -0.004852977586
 15       0.000000000000
 16      -0.000391477055
 17      -0.000517130716
 18      -0.000000000000
 19       0.003599643452
 20      -0.000000000000
 21      -0.000395842844
 22      -0.008111623452
 23       0.007204814615
 24      -0.004852977587
 25       0.000000000000
 26       0.007558747036
 27      -0.024240351248
 28      -0.004644541846
 29      -0.069638029679
 30      -0.000000000000
 31       0.532271895740
 32      -0.002901682162
 33       0.001303909382
 34       0.000947995022
 35       0.001303909382
 36      -0.002901682162
 Sym=     1a
 Ene=  6.00000000000000E+00
 Spin= Alpha
 Occup= 0.010364
  1      -0.134285452916
  2       0.847662598338
  3       0.000000000004
  4       0.964057746814
  5       0.000000000000
  6       0.004312898787
  7      -0.007451624127
  8      -0.025277327982
  9      -0.075708156583
 10       0.000000000000
 11      -0.000972502519
 12      -0.008171875528
 13      -0.011048329605
 14      -0.003970853043
 15      -0.000000000000
 16      -0.000770680758
 17      -0.000281582456
 18      -0.000000000000
 19       0.006788178557
 20      -0.000000000000
 21      -0.000972502519
 22      -0.008171875528
 23       0.011048329605
 24      -0.003970853043
 25       0.000000000000
 26       0.004312898787
 27      -0.007451624125
 28       0.025277327983
 29      -0.075708156583
 30      -0.000000000000
 31      -1.270076076679
 32       0.022600647257
 33       0.002426909069
 34       0.001963683236
 35       0.002426909069
 36       0.022600647256
 Sym=     1a
 Ene=  7.00000000000000E+00
 Spin= Alpha
 Occup= 1.666667
  1       0.000000000000
  2      -0.000000000000
  3      -0.000000000000
  4       0.000000000000
  5       0.652603247447
  6      -0.000000000000
  7       0.000000000000
  8      -0.000000000000
  9      -0.000000000000
 10      -0.076483643165
 11       0.000000000000
 12       0.000000000000
 13       0.000000000000
 14      -0.000000000000
 15       0.001767833059
 16      -0.000000000000
 17       0.000000000000
 18      -0.000000000000
 19       0.000000000000
 20       0.001767834995
 21       0.000000000000
 22      -0.000000000000
 23      -0.000000000000
 24      -0.000000000000
 25      -0.076483618010
 26       0.000000000000
 27       0.000000000000
 28      -0.000000000000
 29      -0.000000000000
 30       0.652603198609
 31      -0.000000000000
 32      -0.000000000000
 33      -0.000000000000
 34      -0.000000000000
 35      -0.000000000000
 36      -0.000000000000
 Sym=     1a
 Ene=  8.00000000000000E+00
 Spin= Alpha
 Occup= 0.333333
  1       0.000000000000
  2      -0.000000000000
  3      -0.000000000000
  4       0.000000000000
  5       0.814480373535
  6      -0.000000000000
  7       0.000000000000
  8      -0.000000000000
  9       0.000000000000
 10      -0.085393513178
 11       0.000000000000
 12      -0.000000000000
 13       0.000000000000
 14       0.000000000000
 15       0.007142044866
 16       0.000000000000
 17      -0.000000000000
 18       0.000000000000
 19      -0.000000000000
 20      -0.007142043452
 21       0.000000000000
 22       0.000000000000
 23       0.000000000000
 24       0.000000000000
 25       0.085393500793
 26       0.000000000000
 27      -0.000000000000
 28       0.000000000000
 29       0.000000000000
 30      -0.814480400217
 31      -0.000000000000
 32       0.000000000000
 33       0.000000000000
 34       0.000000000000
 35      -0.000000000000
 36       0.000000000000
 Sym=     1a
 Ene=  9.00000000000000E+00
 Spin= Alpha
 Occup= 1.999951
  1       0.004292367074
  2      -0.017417003270
  3      -0.021577612427
  4       0.013113941028
  5       0.000000000000
  6       1.007893040355
  7      -0.016997867235
  8       0.000441814922
  9       0.000255075420
 10      -0.000000000000
 11       0.004292365096
 12      -0.017416995823
 13       0.000568195872
 14      -0.025243718363
 15       0.000000000000
 16      -0.000308358785
 17       0.000971474547
 18      -0.001085908714
 19       0.003471999017
 20      -0.000000000000
 21      -0.000073481569
 22      -0.001018965078
 23       0.000276780175
 24       0.000159799068
 25       0.000000000000
 26      -0.000308359020
 27       0.000971476760
 28       0.002463887099
 29      -0.002676424361
 30       0.000000000000
 31       0.000046458537
 32      -0.023625154570
 33       0.000046461851
 34       0.000397634729
 35       0.000216025415
 36       0.000397634595
 Sym=     1a
 Ene=  1.00000000000000E+01
 Spin= Alpha
 Occup= 1.989787
  1       0.007558742933
  2      -0.024240317389
  3      -0.062630558111
  4      -0.030796735177
  5       0.000000000000
  6      -0.073821054647
  7       0.326914003019
  8       0.426913038392
  9       0.246478281873
 10      -0.000000000000
 11       0.007558742505
 12      -0.024240328096
 13      -0.057986027279
 14      -0.038841296526
 15       0.000000000000
 16      -0.000395843084
 17      -0.008111629256
 18      -0.007805210376
 19       0.003813062789
 20       0.000000000000
 21      -0.000391477845
 22      -0.000517126467
 23       0.003117387512
 24       0.001799824015
 25       0.000000000000
 26      -0.000395844075
 27      -0.008111622977
 28      -0.000600389461
 29      -0.008666044471
 30      -0.000000000000
 31      -0.002901683855
 32       0.532271970984
 33      -0.002901697759
 34       0.001303910727
 35       0.000947995341
 36       0.001303910426
 Sym=     1a
 Ene=  1.10000000000000E+01
 Spin= Alpha
 Occup= 0.010364
  1       0.004312898945
  2      -0.007451619908
  3      -0.052926517711
  4      -0.059744891984
  5       0.000000000000
  6      -0.134285441518
  7       0.847662116889
  8       0.834898335389
  9       0.482028573333
 10       0.000000000000
 11       0.004312897700
 12      -0.007451650295
 13      -0.078203817202
 14      -0.015963294378
 15      -0.000000000000
 16      -0.000972502492
 17      -0.008171879165
 18      -0.008963022351
 19       0.007582706243
 20       0.000000000000
 21      -0.000770681945
 22      -0.000281574915
 23       0.005878741877
 24       0.003394092060
 25       0.000000000000
 26      -0.000972504042
 27      -0.008171873058
 28       0.002085312193
 29      -0.011553563197
 30       0.000000000000
 31       0.022600649766
 32      -1.270075523574
 33       0.022600644032
 34       0.002426910588
 35       0.001963683031
 36       0.002426910148
 Sym=     1a
 Ene=  1.20000000000000E+01
 Spin= Alpha
 Occup= 1.989445
  1      -0.008421943272
  2       0.031785574690
  3       0.006018561283
  4      -0.070164503184
  5       0.000000000000
  6       0.075091830634
  7      -0.328376695304
  8       0.001603739571
  9       0.458698588035
 10      -0.000000000000
 11       0.075091830652
 12      -0.328376695324
 13       0.001603739586
 14      -0.458698588023
 15      -0.000000000000
 16      -0.008421943274
 17       0.031785574708
 18       0.006018561297
 19       0.070164503192
 20      -0.000000000000
 21      -0.000880495159
 22      -0.006173158712
 23       0.001263420716
 24       0.005728325881
 25       0.000000000000
 26      -0.000880495159
 27      -0.006173158712
 28       0.001263420717
 29      -0.005728325883
 30      -0.000000000000
 31       0.007919488350
 32       0.045526788177
 33       0.045526788186
 34       0.007919488350
 35       0.002070070323
 36       0.002070070323
 Sym=     1a
 Ene=  1.30000000000000E+01
 Spin= Alpha
 Occup= 0.010454
  1       0.004899878544
  2      -0.023909643133
  3       0.024744061397
  4       0.084189569921
  5       0.000000000000
  6      -0.145956212540
  7       0.986888990896
  8      -0.001800806940
  9      -1.034896161936
 10       0.000000000000
 11       0.145956212560
 12      -0.986888990877
 13       0.001800806951
 14      -1.034896161953
 15      -0.000000000000
 16      -0.004899878545
 17       0.023909643138
 18      -0.024744061393
 19       0.084189569925
 20       0.000000000000
 21       0.000528164284
 22      -0.017336296876
 23      -0.011606145998
 24       0.006833543229
 25      -0.000000000000
 26      -0.000528164284
 27       0.017336296875
 28       0.011606145997
 29       0.006833543229
 30       0.000000000000
 31      -0.007531253812
 32      -0.018538170247
 33       0.018538170247
 34       0.007531253812
 35       0.000531162715
 36      -0.000531162715
 Sym=     1a
 Ene=  1.40000000000000E+01
 Spin= Alpha
 Occup= 1.666667
  1      -0.000000000000
  2       0.000000000000
  3       0.000000000000
  4      -0.000000000000
  5      -0.076483646510
  6       0.000000000000
  7      -0.000000000000
  8       0.000000000000
  9      -0.000000000000
 10       0.652603242411
 11      -0.000000000000
 12       0.000000000000
 13      -0.000000000000
 14      -0.000000000000
 15       0.652603242359
 16      -0.000000000000
 17       0.000000000000
 18      -0.000000000000
 19       0.000000000000
 20      -0.076483646504
 21       0.000000000000
 22      -0.000000000000
 23      -0.000000000000
 24       0.000000000000
 25       0.001767831477
 26      -0.000000000000
 27       0.000000000000
 28       0.000000000000
 29       0.000000000000
 30       0.001767831478
 31       0.000000000000
 32       0.000000000000
 33      -0.000000000000
 34       0.000000000000
 35       0.000000000000
 36      -0.000000000000
 Sym=     1a
 Ene=  1.50000000000000E+01
 Spin= Alpha
 Occup= 0.333333
  1       0.000000000000
  2       0.000000000000
  3      -0.000000000000
  4      -0.000000000000
  5      -0.085393525119
  6      -0.000000000000
  7      -0.000000000000
  8       0.000000000000
  9       0.000000000000
 10       0.814480361446
 11      -0.000000000000
 12       0.000000000000
 13      -0.000000000000
 14       0.000000000000
 15      -0.814480361487
 16       0.000000000000
 17      -0.000000000000
 18       0.000000000000
 19      -0.000000000000
 20       0.085393525123
 21      -0.000000000000
 22      -0.000000000000
 23       0.000000000000
 24      -0.000000000000
 25      -0.007142043560
 26      -0.000000000000
 27       0.000000000000
 28      -0.000000000000
 29      -0.000000000000
 30       0.007142043560
 31      -0.000000000000
 32      -0.000000000000
 33       0.000000000000
 34       0.000000000000
 35       0.000000000000
 36       0.000000000000
 Sym=     1a
 Ene=  1.60000000000000E+01
 Spin= Alpha
 Occup= 1.989445
  1       0.000880492921
  2       0.006173163465
  3       0.004329162491
  4       0.003958303163
  5      -0.000000000000
  6       0.008421941364
  7      -0.031785572607
  8       0.057754927327
  9       0.040294463088
 10      -0.000000000000
 11      -0.075091834107
 12       0.328376722633
 13      -0.398046420696
 14      -0.227960467495
 15      -0.000000000000
 16      -0.075091825291
 17       0.328376712028
 18       0.396442748590
 19       0.230738143599
 20      -0.000000000000
 21       0.008421946180
 22      -0.031785602051
 23      -0.063773538661
 24      -0.029870005827
 25      -0.000000000000
 26       0.000880493691
 27       0.006173158319
 28      -0.005592577775
 29      -0.001770011648
 30       0.000000000000
 31      -0.002070068869
 32      -0.007919470001
 33      -0.045526770565
 34      -0.045526823754
 35      -0.007919482204
 36      -0.002070069227
 Sym=     1a
 Ene=  1.70000000000000E+01
 Spin= Alpha
 Occup= 0.010454
  1       0.000528164508
  2      -0.017336296893
  3      -0.011721089102
  4       0.006634448227
  5       0.000000000000
  6      -0.004899876943
  7       0.023909641379
  8      -0.085282302551
  9      -0.020665786081
 10      -0.000000000000
 11       0.145956222253
 12      -0.986889230393
 13       0.897146806457
 14       0.515888704112
 15       0.000000000000
 16      -0.145956214885
 17       0.986889217964
 18       0.895346082716
 19       0.519007719472
 20      -0.000000000000
 21       0.004899878647
 22      -0.023909670935
 23      -0.060538290997
 24      -0.063523744528
 25      -0.000000000000
 26      -0.000528166308
 27       0.017336298825
 28      -0.000114934610
 29      -0.013467989480
 30      -0.000000000000
 31       0.000531163500
 32       0.007531232414
 33       0.018538126385
 34      -0.018538150635
 35      -0.007531245180
 36      -0.000531161222
 Sym=     1a
 Ene=  1.80000000000000E+01
 Spin= Alpha
 Occup= 1.999951
  1      -0.000308358785
  2       0.000971474547
  3      -0.001085908714
  4      -0.003471999017
  5       0.000000000000
  6       0.004292365097
  7      -0.017416995840
  8       0.000568195873
  9       0.025243718376
 10      -0.000000000000
 11       1.007893040365
 12      -0.016997867285
 13       0.000441814913
 14      -0.000255075341
 15      -0.000000000000
 16       0.004292367073
 17      -0.017417003256
 18      -0.021577612413
 19      -0.013113941029
 20      -0.000000000000
 21      -0.000308359020
 22       0.000971476761
 23       0.002463887100
 24       0.002676424359
 25       0.000000000000
 26      -0.000073481568
 27      -0.001018965078
 28       0.000276780175
 29      -0.000159799068
 30      -0.000000000000
 31       0.000397634729
 32       0.000046461850
 33      -0.023625154548
 34       0.000046458536
 35       0.000397634595
 36       0.000216025415
 Sym=     1a
 Ene=  1.90000000000000E+01
 Spin= Alpha
 Occup= 1.989787
  1      -0.000395843084
  2      -0.008111629254
  3      -0.007805210375
  4      -0.003813062790
  5       0.000000000000
  6       0.007558742508
  7      -0.024240328124
  8      -0.057986027273
  9       0.038841296549
 10       0.000000000000
 11      -0.073821054609
 12       0.326914003039
 13       0.426913038337
 14      -0.246478281842
 15      -0.000000000000
 16       0.007558742936
 17      -0.024240317413
 18      -0.062630558128
 19       0.030796735160
 20       0.000000000000
 21      -0.000395844075
 22      -0.008111622976
 23      -0.000600389460
 24       0.008666044472
 25       0.000000000000
 26      -0.000391477845
 27      -0.000517126468
 28       0.003117387511
 29      -0.001799824015
 30       0.000000000000
 31       0.001303910727
 32      -0.002901697762
 33       0.532271971028
 34      -0.002901683857
 35       0.001303910426
 36       0.000947995341
 Sym=     1a
 Ene=  2.00000000000000E+01
 Spin= Alpha
 Occup= 0.010364
  1      -0.000972502492
  2      -0.008171879164
  3      -0.008963022351
  4      -0.007582706245
  5       0.000000000000
  6       0.004312897702
  7      -0.007451650309
  8      -0.078203817203
  9       0.015963294392
 10       0.000000000000
 11      -0.134285441489
 12       0.847662116916
 13       0.834898335397
 14      -0.482028573338
 15      -0.000000000000
 16       0.004312898947
 17      -0.007451619922
 18      -0.052926517724
 19       0.059744891978
 20       0.000000000000
 21      -0.000972504042
 22      -0.008171873057
 23       0.002085312194
 24       0.011553563198
 25      -0.000000000000
 26      -0.000770681945
 27      -0.000281574915
 28       0.005878741877
 29      -0.003394092060
 30       0.000000000000
 31       0.002426910589
 32       0.022600644034
 33      -1.270075523555
 34       0.022600649767
 35       0.002426910148
 36       0.001963683031
 Sym=     1a
 Ene=  2.10000000000000E+01
 Spin= Alpha
 Occup= 1.989445
  1       0.000880492921
  2       0.006173163464
  3      -0.004329162491
  4       0.003958303164
  5       0.000000000000
  6       0.000880493691
  7       0.006173158319
  8       0.005592577775
  9      -0.001770011648
 10      -0.000000000000
 11       0.008421946179
 12      -0.031785602041
 13       0.063773538658
 14      -0.029870005831
 15       0.000000000000
 16      -0.075091825284
 17       0.328376712027
 18      -0.396442748613
 19       0.230738143605
 20      -0.000000000000
 21      -0.075091834141
 22       0.328376722601
 23       0.398046420686
 24      -0.227960467504
 25       0.000000000000
 26       0.008421941362
 27      -0.031785572585
 28      -0.057754927327
 29       0.040294463070
 30      -0.000000000000
 31      -0.002070068869
 32      -0.002070069227
 33      -0.007919482204
 34      -0.045526823751
 35      -0.045526770555
 36      -0.007919470002
 Sym=     1a
 Ene=  2.20000000000000E+01
 Spin= Alpha
 Occup= 0.010454
  1       0.000528164508
  2      -0.017336296892
  3       0.011721089101
  4       0.006634448226
  5      -0.000000000000
  6      -0.000528166308
  7       0.017336298825
  8       0.000114934611
  9      -0.013467989480
 10      -0.000000000000
 11       0.004899878646
 12      -0.023909670928
 13       0.060538290992
 14      -0.063523744531
 15       0.000000000000
 16      -0.145956214875
 17       0.986889217944
 18      -0.895346082725
 19       0.519007719467
 20       0.000000000000
 21       0.145956222284
 22      -0.986889230419
 23      -0.897146806443
 24       0.515888704118
 25      -0.000000000000
 26      -0.004899876942
 27       0.023909641373
 28       0.085282302550
 29      -0.020665786075
 30       0.000000000000
 31       0.000531163500
 32      -0.000531161222
 33      -0.007531245180
 34      -0.018538150632
 35       0.018538126385
 36       0.007531232415
 Sym=     1a
 Ene=  2.30000000000000E+01
 Spin= Alpha
 Occup= 1.999951
  1      -0.000073481463
  2      -0.001018965967
  3      -0.000000000000
  4      -0.000319597619
  5       0.000000000000
  6      -0.000308358862
  7       0.000971475395
  8      -0.003549794110
  9      -0.000795575085
 10      -0.000000000000
 11       0.004292366258
 12      -0.017416999680
 13       0.022145807446
 14       0.012129790864
 15      -0.000000000000
 16       1.007893044675
 17      -0.016997875612
 18       0.000000000009
 19      -0.000510147601
 20      -0.000000000000
 21       0.004292366258
 22      -0.017416999678
 23      -0.022145807443
 24       0.012129790861
 25      -0.000000000000
 26      -0.000308358862
 27       0.000971475395
 28       0.003549794110
 29      -0.000795575086
 30      -0.000000000000
 31       0.000216025536
 32       0.000397634185
 33       0.000046459019
 34      -0.023625180248
 35       0.000046459020
 36       0.000397634185
 Sym=     1a
 Ene=  2.40000000000000E+01
 Spin= Alpha
 Occup= 1.989787
  1       0.000391477055
  2       0.000517130716
  3      -0.000000000000
  4       0.003599643452
  5       0.000000000000
  6       0.000395842844
  7       0.008111623452
  8       0.007204814615
  9      -0.004852977587
 10       0.000000000000
 11      -0.007558747036
 12       0.024240351247
 13      -0.004644541846
 14      -0.069638029679
 15      -0.000000000000
 16       0.073821051116
 17      -0.326914072969
 18       0.000000000004
 19       0.492956630334
 20       0.000000000000
 21      -0.007558747036
 22       0.024240351253
 23       0.004644541847
 24      -0.069638029679
 25      -0.000000000000
 26       0.000395842844
 27       0.008111623451
 28      -0.007204814615
 29      -0.004852977586
 30      -0.000000000000
 31      -0.000947995022
 32      -0.001303909382
 33       0.002901682162
 34      -0.532271895740
 35       0.002901682162
 36      -0.001303909382
 Sym=     1a
 Ene=  2.50000000000000E+01
 Spin= Alpha
 Occup= 0.010364
  1      -0.000770680758
  2      -0.000281582456
  3       0.000000000000
  4      -0.006788178557
  5      -0.000000000000
  6      -0.000972502519
  7      -0.008171875528
  8      -0.011048329605
  9       0.003970853043
 10      -0.000000000000
 11       0.004312898787
 12      -0.007451624124
 13      -0.025277327983
 14       0.075708156583
 15       0.000000000000
 16      -0.134285452917
 17       0.847662598338
 18      -0.000000000004
 19      -0.964057746815
 20      -0.000000000000
 21       0.004312898787
 22      -0.007451624127
 23       0.025277327982
 24       0.075708156583
 25      -0.000000000000
 26      -0.000972502519
 27      -0.008171875528
 28       0.011048329605
 29       0.003970853043
 30       0.000000000000
 31       0.001963683236
 32       0.002426909069
 33       0.022600647256
 34      -1.270076076679
 35       0.022600647257
 36       0.002426909069
 Sym=     1a
 Ene=  2.60000000000000E+01
 Spin= Alpha
 Occup= 1.666667
  1       0.000000000000
  2      -0.000000000000
  3      -0.000000000000
  4       0.000000000000
  5       0.001767834996
  6      -0.000000000000
  7       0.000000000000
  8       0.000000000000
  9       0.000000000000