[Molden Format]
[Title]
 Generated by Molden2AIM, Version 5.1.2 (07/17/2025)           Time: Fri Sep  5 11:01:33 2025

[Atoms] AU
  C      1    6        0.0000000000        2.6257479939        0.0000000000
  C      2    6        2.2739641375        1.3128739970        0.0000000000
  C      3    6        2.2739641375       -1.3128739970        0.0000000000
  C      4    6        0.0000000000       -2.6257479939        0.0000000000
  C      5    6       -2.2739641375       -1.3128739970        0.0000000000
  C      6    6       -2.2739641375        1.3128739970        0.0000000000
  H      7    1        0.0000000000        4.6681602099        0.0000000000
  H      8    1        4.0427459003        2.3340801049        0.0000000000
  H      9    1        4.0427459003       -2.3340801049        0.0000000000
  H     10    1        0.0000000000       -4.6681602099        0.0000000000
  H     11    1       -4.0427459003       -2.3340801049        0.0000000000
  H     12    1       -4.0427459003        2.3340801049        0.0000000000
[GTO]
    1    0
 S    3  1.0
    0.7161683700D+02    0.1543289700D+00
    0.1304509600D+02    0.5353281400D+00
    0.3530512200D+01    0.4446345400D+00
 S    3  1.0
    0.2941249400D+01   -0.9996723008D-01
    0.6834831000D+00    0.3995128303D+00
    0.2222899000D+00    0.7001154705D+00
 P    3  1.0
    0.2941249400D+01    0.1559162721D+00
    0.6834831000D+00    0.6076837282D+00
    0.2222899000D+00    0.3919573953D+00

    2    0
 S    3  1.0
    0.7161683700D+02    0.1543289700D+00
    0.1304509600D+02    0.5353281400D+00
    0.3530512200D+01    0.4446345400D+00
 S    3  1.0
    0.2941249400D+01   -0.9996723008D-01
    0.6834831000D+00    0.3995128303D+00
    0.2222899000D+00    0.7001154705D+00
 P    3  1.0
    0.2941249400D+01    0.1559162721D+00
    0.6834831000D+00    0.6076837282D+00
    0.2222899000D+00    0.3919573953D+00

    3    0
 S    3  1.0
    0.7161683700D+02    0.1543289700D+00
    0.1304509600D+02    0.5353281400D+00
    0.3530512200D+01    0.4446345400D+00
 S    3  1.0
    0.2941249400D+01   -0.9996723008D-01
    0.6834831000D+00    0.3995128303D+00
    0.2222899000D+00    0.7001154705D+00
 P    3  1.0
    0.2941249400D+01    0.1559162721D+00
    0.6834831000D+00    0.6076837282D+00
    0.2222899000D+00    0.3919573953D+00

    4    0
 S    3  1.0
    0.7161683700D+02    0.1543289700D+00
    0.1304509600D+02    0.5353281400D+00
    0.3530512200D+01    0.4446345400D+00
 S    3  1.0
    0.2941249400D+01   -0.9996723008D-01
    0.6834831000D+00    0.3995128303D+00
    0.2222899000D+00    0.7001154705D+00
 P    3  1.0
    0.2941249400D+01    0.1559162721D+00
    0.6834831000D+00    0.6076837282D+00
    0.2222899000D+00    0.3919573953D+00

    5    0
 S    3  1.0
    0.7161683700D+02    0.1543289700D+00
    0.1304509600D+02    0.5353281400D+00
    0.3530512200D+01    0.4446345400D+00
 S    3  1.0
    0.2941249400D+01   -0.9996723008D-01
    0.6834831000D+00    0.3995128303D+00
    0.2222899000D+00    0.7001154705D+00
 P    3  1.0
    0.2941249400D+01    0.1559162721D+00
    0.6834831000D+00    0.6076837282D+00
    0.2222899000D+00    0.3919573953D+00

    6    0
 S    3  1.0
    0.7161683700D+02    0.1543289700D+00
    0.1304509600D+02    0.5353281400D+00
    0.3530512200D+01    0.4446345400D+00
 S    3  1.0
    0.2941249400D+01   -0.9996723008D-01
    0.6834831000D+00    0.3995128303D+00
    0.2222899000D+00    0.7001154705D+00
 P    3  1.0
    0.2941249400D+01    0.1559162721D+00
    0.6834831000D+00    0.6076837282D+00
    0.2222899000D+00    0.3919573953D+00

    7    0
 S    3  1.0
    0.3425250910D+01    0.1543289707D+00
    0.6239137300D+00    0.5353281424D+00
    0.1688554000D+00    0.4446345420D+00

    8    0
 S    3  1.0
    0.3425250910D+01    0.1543289707D+00
    0.6239137300D+00    0.5353281424D+00
    0.1688554000D+00    0.4446345420D+00

    9    0
 S    3  1.0
    0.3425250910D+01    0.1543289707D+00
    0.6239137300D+00    0.5353281424D+00
    0.1688554000D+00    0.4446345420D+00

   10    0
 S    3  1.0
    0.3425250910D+01    0.1543289707D+00
    0.6239137300D+00    0.5353281424D+00
    0.1688554000D+00    0.4446345420D+00

   11    0
 S    3  1.0
    0.3425250910D+01    0.1543289707D+00
    0.6239137300D+00    0.5353281424D+00
    0.1688554000D+00    0.4446345420D+00

   12    0
 S    3  1.0
    0.3425250910D+01    0.1543289707D+00
    0.6239137300D+00    0.5353281424D+00
    0.1688554000D+00    0.4446345420D+00

[MO]
 Sym= A
 Ene=        -11.02918139
 Spin= Alpha
 Occup=        2.00000000
    1       -0.5730167725
    2       -0.0168736239
    3       -0.0000000033
    4       -0.0005159164
    5        0.0000000000
    6       -0.2865061166
    7       -0.0084367011
    8       -0.0018611729
    9        0.0027077097
   10        0.0000000000
   11        0.2865069886
   12        0.0084367267
   13        0.0018611719
   14        0.0027077064
   15        0.0000000000
   16        0.5730167725
   17        0.0168736239
   18       -0.0000000033
   19       -0.0005159164
   20       -0.0000000000
   21        0.2865061166
   22        0.0084367011
   23       -0.0018611729
   24        0.0027077097
   25        0.0000000000
   26       -0.2865069886
   27       -0.0084367267
   28        0.0018611719
   29        0.0027077064
   30       -0.0000000000
   31        0.0038207896
   32        0.0019103774
   33       -0.0019103832
   34       -0.0038207896
   35       -0.0019103774
   36        0.0019103832
 Sym= A
 Ene=        -11.02918139
 Spin= Alpha
 Occup=        2.00000000
    1       -0.0000005034
    2       -0.0000000148
    3        0.0037822565
    4       -0.0000000005
    5        0.0000000000
    6       -0.4962462751
    7       -0.0146129371
    8        0.0005586209
    9       -0.0018611638
   10       -0.0000000000
   11       -0.4962457716
   12       -0.0146129223
   13        0.0005586242
   14        0.0018611685
   15        0.0000000000
   16        0.0000005035
   17        0.0000000148
   18        0.0037822565
   19       -0.0000000005
   20       -0.0000000000
   21        0.4962462751
   22        0.0146129371
   23        0.0005586209
   24       -0.0018611638
   25       -0.0000000000
   26        0.4962457717
   27        0.0146129223
   28        0.0005586242
   29        0.0018611685
   30        0.0000000000
   31        0.0000000034
   32        0.0033088929
   33        0.0033088895
   34       -0.0000000034
   35       -0.0033088929
   36       -0.0033088895
 Sym= A
 Ene=        -11.02916713
 Spin= Alpha
 Occup=        2.00000000
    1        0.4054055145
    2        0.0092129810
    3       -0.0000000000
    4        0.0015394079
    5        0.0000000000
    6        0.4054007384
    7        0.0092127692
    8        0.0013331894
    9        0.0007696953
   10        0.0000000000
   11        0.4054007384
   12        0.0092127692
   13        0.0013331894
   14       -0.0007696953
   15       -0.0000000000
   16        0.4054055145
   17        0.0092129810
   18       -0.0000000000
   19       -0.0015394079
   20       -0.0000000000
   21        0.4054007383
   22        0.0092127692
   23       -0.0013331894
   24       -0.0007696953
   25        0.0000000000
   26        0.4054007383
   27        0.0092127692
   28       -0.0013331894
   29        0.0007696953
   30       -0.0000000000
   31       -0.0028271351
   32       -0.0028271001
   33       -0.0028271001
   34       -0.0028271351
   35       -0.0028271001
   36       -0.0028271001
 Sym= A
 Ene=        -11.02879479
 Spin= Alpha
 Occup=        2.00000000
    1        0.5725986282
    2        0.0251026588
    3       -0.0000000000
    4       -0.0019530241
    5        0.0000000000
    6       -0.2863026962
    7       -0.0125514051
    8        0.0025449336
    9       -0.0024549557
   10        0.0000000000
   11       -0.2863026962
   12       -0.0125514051
   13        0.0025449336
   14        0.0024549557
   15        0.0000000000
   16        0.5725986282
   17        0.0251026588
   18        0.0000000000
   19        0.0019530241
   20        0.0000000000
   21       -0.2863026962
   22       -0.0125514051
   23       -0.0025449336
   24        0.0024549557
   25        0.0000000000
   26       -0.2863026962
   27       -0.0125514051
   28       -0.0025449336
   29       -0.0024549557
   30       -0.0000000000
   31       -0.0040003366
   32        0.0020001909
   33        0.0020001909
   34       -0.0040003366
   35        0.0020001909
   36        0.0020001909
 Sym= A
 Ene=        -11.02879479
 Spin= Alpha
 Occup=        2.00000000
    1        0.0000000000
    2        0.0000000000
    3       -0.0039242731
    4        0.0000000000
    5        0.0000000000
    6        0.4958869109
    7        0.0217395804
    8       -0.0004836944
    9       -0.0025449409
   10       -0.0000000000
   11       -0.4958869109
   12       -0.0217395804
   13        0.0004836944
   14       -0.0025449409
   15       -0.0000000000
   16       -0.0000000000
   17       -0.0000000000
   18        0.0039242731
   19       -0.0000000000
   20       -0.0000000000
   21        0.4958869110
   22        0.0217395804
   23        0.0004836944
   24        0.0025449409
   25       -0.0000000000
   26       -0.4958869109
   27       -0.0217395804
   28       -0.0004836944
   29        0.0025449409
   30        0.0000000000
   31       -0.0000000000
   32       -0.0034644047
   33        0.0034644047
   34        0.0000000000
   35       -0.0034644047
   36        0.0034644047
 Sym= A
 Ene=        -11.02863583
 Spin= Alpha
 Occup=        2.00000000
    1       -0.4047338014
    2       -0.0210963757
    3       -0.0000000000
    4        0.0024752854
    5       -0.0000000000
    6        0.4047363978
    7        0.0210964488
    8       -0.0021436538
    9       -0.0012376497
   10        0.0000000000
   11       -0.4047363978
   12       -0.0210964488
   13        0.0021436538
   14       -0.0012376498
   15        0.0000000000
   16        0.4047338013
   17        0.0210963757
   18        0.0000000000
   19        0.0024752854
   20       -0.0000000000
   21       -0.4047363978
   22       -0.0210964488
   23       -0.0021436538
   24       -0.0012376497
   25       -0.0000000000
   26        0.4047363978
   27        0.0210964488
   28        0.0021436538
   29       -0.0012376497
   30       -0.0000000000
   31        0.0029275363
   32       -0.0029275520
   33        0.0029275520
   34       -0.0029275363
   35        0.0029275520
   36       -0.0029275520
 Sym= A
 Ene=         -1.09384738
 Spin= Alpha
 Occup=        2.00000000
    1       -0.1048371274
    2        0.2639265387
    3       -0.0000000000
    4       -0.0623002043
    5        0.0000000000
    6       -0.1048371029
    7        0.2639264897
    8       -0.0539535737
    9       -0.0311500822
   10       -0.0000000000
   11       -0.1048371029
   12        0.2639264897
   13       -0.0539535737
   14        0.0311500822
   15        0.0000000000
   16       -0.1048371274
   17        0.2639265387
   18        0.0000000000
   19        0.0623002043
   20        0.0000000000
   21       -0.1048371029
   22        0.2639264897
   23        0.0539535737
   24        0.0311500822
   25        0.0000000000
   26       -0.1048371029
   27        0.2639264897
   28        0.0539535737
   29       -0.0311500822
   30        0.0000000000
   31        0.0468338544
   32        0.0468338087
   33        0.0468338087
   34        0.0468338544
   35        0.0468338087
   36        0.0468338087
 Sym= A
 Ene=         -0.95731633
 Spin= Alpha
 Occup=        2.00000000
    1        0.1467173810
    2       -0.3942446653
    3        0.0000000009
    4        0.0278606222
    5       -0.0000000000
    6        0.0733586778
    7       -0.1971223050
    8        0.0687608524
    9       -0.0912366098
   10       -0.0000000000
   11       -0.0733586796
   12        0.1971223097
   13       -0.0687608523
   14       -0.0912366089
   15       -0.0000000000
   16       -0.1467173810
   17        0.3942446653
   18        0.0000000009
   19        0.0278606222
   20        0.0000000000
   21       -0.0733586778
   22        0.1971223050
   23        0.0687608524
   24       -0.0912366098
   25       -0.0000000000
   26        0.0733586796
   27       -0.1971223097
   28       -0.0687608523
   29       -0.0912366089
   30       -0.0000000000
   31       -0.1087556177
   32       -0.0543777552
   33        0.0543777565
   34        0.1087556177
   35        0.0543777552
   36       -0.0543777565
 Sym= A
 Ene=         -0.95731623
 Spin= Alpha
 Occup=        2.00000000
    1       -0.0000000010
    2        0.0000000028
    3        0.1309357371
    4       -0.0000000002
    5        0.0000000000
    6       -0.1270609678
    7        0.3414259080
    8        0.0118384469
    9       -0.0687608289
   10       -0.0000000000
   11       -0.1270609668
   12        0.3414259052
   13        0.0118384478
   14        0.0687608302
   15        0.0000000000
   16        0.0000000010
   17       -0.0000000028
   18        0.1309357371
   19       -0.0000000002
   20        0.0000000000
   21        0.1270609678
   22       -0.3414259080
   23        0.0118384469
   24       -0.0687608289
   25        0.0000000000
   26        0.1270609668
   27       -0.3414259052
   28        0.0118384478
   29        0.0687608302
   30        0.0000000000
   31        0.0000000008
   32        0.0941850900
   33        0.0941850892
   34       -0.0000000008
   35       -0.0941850900
   36       -0.0941850892
 Sym= A
 Ene=         -0.76889065
 Spin= Alpha
 Occup=        2.00000000
    1       -0.1142968175
    2        0.3353231648
    3        0.0000000029
    4        0.0842122148
    5       -0.0000000000
    6        0.0571484126
    7       -0.1676616148
    8       -0.1368750910
    9        0.1528627410
   10       -0.0000000000
   11        0.0571484151
   12       -0.1676616220
   13       -0.1368750911
   14       -0.1528627376
   15       -0.0000000000
   16       -0.1142968175
   17        0.3353231648
   18       -0.0000000029
   19       -0.0842122148
   20       -0.0000000000
   21        0.0571484126
   22       -0.1676616148
   23        0.1368750910
   24       -0.1528627410
   25       -0.0000000000
   26        0.0571484151
   27       -0.1676616220
   28        0.1368750911
   29        0.1528627376
   30       -0.0000000000
   31        0.1778801716
   32       -0.0889399866
   33       -0.0889399905
   34        0.1778801716
   35       -0.0889399866
   36       -0.0889399905
 Sym= A
 Ene=         -0.76889059
 Spin= Alpha
 Occup=        2.00000000
    1        0.0000000014
    2       -0.0000000042
    3        0.2318877041
    4       -0.0000000010
    5        0.0000000000
    6       -0.0989839570
    7        0.2903984388
    8        0.0051871173
    9        0.1368751833
   10        0.0000000000
   11        0.0989839556
   12       -0.2903984346
   13       -0.0051871138
   14        0.1368751871
   15        0.0000000000
   16        0.0000000014
   17       -0.0000000042
   18       -0.2318877041
   19        0.0000000010
   20        0.0000000000
   21       -0.0989839570
   22        0.2903984388
   23       -0.0051871173
   24       -0.1368751833
   25       -0.0000000000
   26        0.0989839556
   27       -0.2903984346
   28        0.0051871138
   29       -0.1368751871
   30        0.0000000000
   31       -0.0000000022
   32        0.1540486283
   33       -0.1540486261
   34       -0.0000000022
   35        0.1540486283
   36       -0.1540486261
 Sym= A
 Ene=         -0.66528936
 Spin= Alpha
 Occup=        2.00000000
    1        0.0091032782
    2       -0.0371602534
    3       -0.0000000000
    4       -0.2342012357
    5        0.0000000000
    6        0.0091033464
    7       -0.0371604702
    8       -0.2028242488
    9       -0.1171004207
   10        0.0000000000
   11        0.0091033464
   12       -0.0371604702
   13       -0.2028242488
   14        0.1171004207
   15       -0.0000000000
   16        0.0091032782
   17       -0.0371602534
   18       -0.0000000000
   19        0.2342012357
   20       -0.0000000000
   21        0.0091033464
   22       -0.0371604702
   23        0.2028242488
   24        0.1171004207
   25       -0.0000000000
   26        0.0091033464
   27       -0.0371604702
   28        0.2028242488
   29       -0.1171004207
   30       -0.0000000000
   31       -0.1749420600
   32       -0.1749420792
   33       -0.1749420792
   34       -0.1749420600
   35       -0.1749420792
   36       -0.1749420792
 Sym= A
 Ene=         -0.59505963
 Spin= Alpha
 Occup=        2.00000000
    1       -0.0652355978
    2        0.2184573148
    3       -0.0000000000
    4        0.1644462285
    5       -0.0000000000
    6        0.0652356768
    7       -0.2184576014
    8       -0.1424139629
    9       -0.0822228601
   10       -0.0000000000
   11       -0.0652356768
   12        0.2184576014
   13        0.1424139629
   14       -0.0822228601
   15       -0.0000000000
   16        0.0652355978
   17       -0.2184573148
   18        0.0000000000
   19        0.1644462285
   20       -0.0000000000
   21       -0.0652356768
   22        0.2184576014
   23       -0.1424139629
   24       -0.0822228601
   25       -0.0000000000
   26        0.0652356768
   27       -0.2184576014
   28        0.1424139629
   29       -0.0822228601
   30       -0.0000000000
   31        0.2320748299
   32       -0.2320743593
   33        0.2320743593
   34       -0.2320748299
   35        0.2320743593
   36       -0.2320743593
 Sym= A
 Ene=         -0.55603836
 Spin= Alpha
 Occup=        2.00000000
    1       -0.0000000000
    2        0.0000000000
    3        0.3321431815
    4       -0.0000000000
    5       -0.0000000000
    6       -0.0000000294
    7        0.0000000768
    8       -0.1660717879
    9        0.2876440853
   10       -0.0000000000
   11       -0.0000000294
   12        0.0000000768
   13       -0.1660717879
   14       -0.2876440853
   15       -0.0000000000
   16        0.0000000000
   17       -0.0000000000
   18        0.3321431815
   19       -0.0000000000
   20       -0.0000000000
   21        0.0000000294
   22       -0.0000000768
   23       -0.1660717879
   24        0.2876440853
   25       -0.0000000000
   26        0.0000000294
   27       -0.0000000768
   28       -0.1660717879
   29       -0.2876440853
   30       -0.0000000000
   31       -0.0000000000
   32       -0.0000003053
   33       -0.0000003053
   34        0.0000000000
   35        0.0000003053
   36        0.0000003053
 Sym= A
 Ene=         -0.53600022
 Spin= Alpha
 Occup=        2.00000000
    1        0.0268016441
    2       -0.0843153907
    3       -0.0000000000
    4        0.3696287076
    5       -0.0000000000
    6        0.0134007127
    7       -0.0421572919
    8        0.2041919403
    9        0.0159584754
   10       -0.0000000000
   11       -0.0134007127
   12        0.0421572919
   13       -0.2041919403
   14        0.0159584754
   15       -0.0000000000
   16       -0.0268016441
   17        0.0843153907
   18       -0.0000000000
   19        0.3696287076
   20       -0.0000000000
   21       -0.0134007127
   22        0.0421572919
   23        0.2041919403
   24        0.0159584754
   25       -0.0000000000
   26        0.0134007127
   27       -0.0421572919
   28       -0.2041919403
   29        0.0159584754
   30       -0.0000000000
   31        0.2823982483
   32        0.1411995731
   33       -0.1411995731
   34       -0.2823982483
   35       -0.1411995731
   36        0.1411995731
 Sym= A
 Ene=         -0.53600007
 Spin= Alpha
 Occup=        2.00000000
    1       -0.0000000000
    2        0.0000000000
    3       -0.1019313868
    4       -0.0000000000
    5       -0.0000000000
    6        0.0232108533
    7       -0.0730190871
    8        0.2517385444
    9        0.2041920940
   10       -0.0000000000
   11        0.0232108533
   12       -0.0730190871
   13        0.2517385444
   14       -0.2041920940
   15       -0.0000000000
   16       -0.0000000000
   17        0.0000000000
   18       -0.1019313868
   19       -0.0000000000
   20       -0.0000000000
   21       -0.0232108533
   22        0.0730190871
   23        0.2517385444
   24        0.2041920940
   25       -0.0000000000
   26       -0.0232108533
   27        0.0730190871
   28        0.2517385444
   29       -0.2041920940
   30       -0.0000000000
   31       -0.0000000000
   32        0.2445643590
   33        0.2445643590
   34        0.0000000000
   35       -0.2445643590
   36       -0.2445643590
 Sym= A
 Ene=         -0.45935198
 Spin= Alpha
 Occup=        2.00000000
    1        0.0000000000
    2        0.0000000000
    3        0.0000000000
    4        0.0000000000
    5        0.3336434973
    6        0.0000000000
    7       -0.0000000000
    8        0.0000000000
    9        0.0000000000
   10        0.3336434434
   11       -0.0000000000
   12        0.0000000000
   13       -0.0000000000
   14       -0.0000000000
   15        0.3336434434
   16        0.0000000000
   17       -0.0000000000
   18       -0.0000000000
   19        0.0000000000
   20        0.3336434973
   21       -0.0000000000
   22        0.0000000000
   23        0.0000000000
   24        0.0000000000
   25        0.3336434434
   26        0.0000000000
   27       -0.0000000000
   28       -0.0000000000
   29       -0.0000000000
   30        0.3336434434
   31        0.0000000000
   32       -0.0000000000
   33       -0.0000000000
   34       -0.0000000000
   35       -0.0000000000
   36       -0.0000000000
 Sym= A
 Ene=         -0.43396959
 Spin= Alpha
 Occup=        2.00000000
    1       -0.0077893262
    2        0.0166416824
    3        0.0000000000
    4       -0.2825704827
    5        0.0000000000
    6        0.0038946544
    7       -0.0083208065
    8       -0.0222560025
    9        0.3211192403
   10        0.0000000000
   11        0.0038946544
   12       -0.0083208065
   13       -0.0222560025
   14       -0.3211192403
   15       -0.0000000000
   16       -0.0077893262
   17        0.0166416824
   18       -0.0000000000
   19        0.2825704827
   20       -0.0000000000
   21        0.0038946544
   22       -0.0083208065
   23        0.0222560025
   24       -0.3211192403
   25       -0.0000000000
   26        0.0038946544
   27       -0.0083208065
   28        0.0222560025
   29        0.3211192403
   30        0.0000000000
   31       -0.2982284527
   32        0.1491143083
   33        0.1491143083
   34       -0.2982284527
   35        0.1491143083
   36        0.1491143083
 Sym= A
 Ene=         -0.43396958
 Spin= Alpha
 Occup=        2.00000000
    1       -0.0000000000
    2        0.0000000000
    3        0.3339686814
    4        0.0000000000
    5       -0.0000000000
    6       -0.0067457305
    7        0.0144119932
    8       -0.2954200775
    9        0.0222560733
   10       -0.0000000000
   11        0.0067457305
   12       -0.0144119932
   13        0.2954200775
   14        0.0222560733
   15       -0.0000000000
   16        0.0000000000
   17       -0.0000000000
   18       -0.3339686814
   19       -0.0000000000
   20       -0.0000000000
   21       -0.0067457305
   22        0.0144119932
   23        0.2954200775
   24       -0.0222560733
   25       -0.0000000000
   26        0.0067457305
   27       -0.0144119932
   28       -0.2954200775
   29       -0.0222560733
   30       -0.0000000000
   31        0.0000000000
   32       -0.2582735315
   33        0.2582735315
   34        0.0000000000
   35       -0.2582735315
   36        0.2582735315
 Sym= A
 Ene=         -0.28178496
 Spin= Alpha
 Occup=        2.00000000
    1       -0.0000000000
    2        0.0000000000
    3       -0.0000000000
    4        0.0000000000
    5        0.5314048630
    6       -0.0000000000
    7        0.0000000000
    8        0.0000000000
    9       -0.0000000000
   10        0.2657024386
   11        0.0000000000
   12       -0.0000000000
   13        0.0000000000
   14        0.0000000000
   15       -0.2657024271
   16       -0.0000000000
   17        0.0000000000
   18        0.0000000000
   19       -0.0000000000
   20       -0.5314048630
   21        0.0000000000
   22       -0.0000000000
   23       -0.0000000000
   24        0.0000000000
   25       -0.2657024386
   26       -0.0000000000
   27        0.0000000000
   28       -0.0000000000
   29       -0.0000000000
   30        0.2657024271
   31        0.0000000000
   32       -0.0000000000
   33        0.0000000000
   34        0.0000000000
   35        0.0000000000
   36       -0.0000000000
 Sym= A
 Ene=         -0.28178487
 Spin= Alpha
 Occup=        2.00000000
    1        0.0000000000
    2       -0.0000000000
    3        0.0000000000
    4       -0.0000000000
    5        0.0000000066
    6        0.0000000000
    7       -0.0000000000
    8       -0.0000000000
    9        0.0000000000
   10       -0.4602101292
   11        0.0000000000
   12       -0.0000000000
   13       -0.0000000000
   14        0.0000000000
   15       -0.4602101358
   16        0.0000000000
   17        0.0000000000
   18       -0.0000000000
   19        0.0000000000
   20       -0.0000000066
   21        0.0000000000
   22       -0.0000000000
   23       -0.0000000000
   24        0.0000000000
   25        0.4602101292
   26        0.0000000000
   27       -0.0000000000
   28        0.0000000000
   29        0.0000000000
   30        0.4602101358
   31       -0.0000000000
   32        0.0000000000
   33        0.0000000000
   34        0.0000000000
   35        0.0000000000
   36        0.0000000000
 Sym= A
 Ene=          0.26995694
 Spin= Alpha
 Occup=        0.00000000
    1       -0.0000000000
    2        0.0000000000
    3        0.0000000000
    4        0.0000000000
    5       -0.0000000202
    6       -0.0000000000
    7        0.0000000000
    8        0.0000000000
    9       -0.0000000000
   10        0.5708744094
   11       -0.0000000000
   12        0.0000000000
   13        0.0000000000
   14       -0.0000000000
   15       -0.5708743892
   16       -0.0000000000
   17        0.0000000000
   18        0.0000000000
   19       -0.0000000000
   20       -0.0000000202
   21       -0.0000000000
   22        0.0000000000
   23       -0.0000000000
   24       -0.0000000000
   25        0.5708744094
   26       -0.0000000000
   27        0.0000000000
   28       -0.0000000000
   29        0.0000000000
   30       -0.5708743892
   31       -0.0000000000
   32       -0.0000000000
   33       -0.0000000000
   34       -0.0000000000
   35       -0.0000000000
   36       -0.0000000000
 Sym= A
 Ene=          0.26995698
 Spin= Alpha
 Occup=        0.00000000
    1        0.0000000000
    2       -0.0000000000
    3       -0.0000000000
    4       -0.0000000000
    5        0.6591889799
    6        0.0000000000
    7       -0.0000000000
    8       -0.0000000000
    9        0.0000000000
   10       -0.3295945074
   11       -0.0000000000
   12        0.0000000000
   13       -0.0000000000
   14        0.0000000000
   15       -0.3295945424
   16        0.0000000000
   17        0.0000000000
   18       -0.0000000000
   19        0.0000000000
   20        0.6591889799
   21        0.0000000000
   22       -0.0000000000
   23       -0.0000000000
   24        0.0000000000
   25       -0.3295945074
   26        0.0000000000
   27       -0.0000000000
   28        0.0000000000
   29       -0.0000000000
   30       -0.3295945424
   31        0.0000000000
   32        0.0000000000
   33        0.0000000000
   34        0.0000000000
   35        0.0000000000
   36        0.0000000000
 Sym= A
 Ene=          0.50712510
 Spin= Alpha
 Occup=        0.00000000
    1        0.0000000000
    2       -0.0000000000
    3       -0.0000000000
    4       -0.0000000000
    5        0.5236659153
    6        0.0000000000
    7       -0.0000000000
    8       -0.0000000000
    9       -0.0000000000
   10       -0.5236658841
   11        0.0000000000
   12       -0.0000000000
   13       -0.0000000000
   14        0.0000000000
   15        0.5236658841
   16        0.0000000000
   17       -0.0000000000
   18       -0.0000000000
   19        0.0000000000
   20       -0.5236659153
   21        0.0000000000
   22       -0.0000000000
   23        0.0000000000
   24        0.0000000000
   25        0.5236658841
   26        0.0000000000
   27       -0.0000000000
   28        0.0000000000
   29       -0.0000000000
   30       -0.5236658841
   31        0.0000000000
   32        0.0000000000
   33        0.0000000000
   34        0.0000000000
   35        0.0000000000
   36        0.0000000000
 Sym= A
 Ene=          0.58157731
 Spin= Alpha
 Occup=        0.00000000
    1        0.0526869413
    2       -0.3359247206
    3       -0.0000000000
    4       -0.3160427147
    5       -0.0000000000
    6        0.0526871765
    7       -0.3359260362
    8       -0.2737012451
    9       -0.1580217641
   10        0.0000000000
   11        0.0526871765
   12       -0.3359260362
   13       -0.2737012451
   14        0.1580217641
   15       -0.0000000000
   16        0.0526869413
   17       -0.3359247206
   18       -0.0000000000
   19        0.3160427147
   20        0.0000000000
   21        0.0526871765
   22       -0.3359260362
   23        0.2737012451
   24        0.1580217641
   25       -0.0000000000
   26        0.0526871765
   27       -0.3359260362
   28        0.2737012451
   29       -0.1580217641
   30        0.0000000000
   31        0.5132548831
   32        0.5132557884
   33        0.5132557884
   34        0.5132548831
   35        0.5132557884
   36        0.5132557884
 Sym= A
 Ene=          0.65153999
 Spin= Alpha
 Occup=        0.00000000
    1       -0.0000000000
    2       -0.0000000000
    3        0.3243278091
    4       -0.0000000000
    5        0.0000000000
    6       -0.0261261260
    7        0.1714950166
    8        0.4985067729
    9        0.1005621582