[Molden Format]
[Title]
 created by molden2molden from c6h6_new.molden

[Atoms] AU
C    1   6          0.0000000000         2.6257479939         0.0000000000 
C    2   6          2.2739641375         1.3128739970         0.0000000000 
C    3   6          2.2739641375        -1.3128739970         0.0000000000 
C    4   6          0.0000000000        -2.6257479939         0.0000000000 
C    5   6         -2.2739641375        -1.3128739970         0.0000000000 
C    6   6         -2.2739641375         1.3128739970         0.0000000000 
H    7   1          0.0000000000         4.6681602099         0.0000000000 
H    8   1          4.0427459003         2.3340801049         0.0000000000 
H    9   1          4.0427459003        -2.3340801049         0.0000000000 
H   10   1          0.0000000000        -4.6681602099         0.0000000000 
H   11   1         -4.0427459003        -2.3340801049         0.0000000000 
H   12   1         -4.0427459003         2.3340801049         0.0000000000 
[GTO]
  1 0 
s   3 1.0  
       71.6168370000         0.1543289700 
       13.0450960000         0.5353281400 
        3.5305122000         0.4446345400 
s   3 1.0  
        2.9412494000        -0.0999672301 
        0.6834831000         0.3995128303 
        0.2222899000         0.7001154705 
p   3 1.0  
        2.9412494000         0.1559162721 
        0.6834831000         0.6076837282 
        0.2222899000         0.3919573953 

  2 0 
s   3 1.0  
       71.6168370000         0.1543289700 
       13.0450960000         0.5353281400 
        3.5305122000         0.4446345400 
s   3 1.0  
        2.9412494000        -0.0999672301 
        0.6834831000         0.3995128303 
        0.2222899000         0.7001154705 
p   3 1.0  
        2.9412494000         0.1559162721 
        0.6834831000         0.6076837282 
        0.2222899000         0.3919573953 

  3 0 
s   3 1.0  
       71.6168370000         0.1543289700 
       13.0450960000         0.5353281400 
        3.5305122000         0.4446345400 
s   3 1.0  
        2.9412494000        -0.0999672301 
        0.6834831000         0.3995128303 
        0.2222899000         0.7001154705 
p   3 1.0  
        2.9412494000         0.1559162721 
        0.6834831000         0.6076837282 
        0.2222899000         0.3919573953 

  4 0 
s   3 1.0  
       71.6168370000         0.1543289700 
       13.0450960000         0.5353281400 
        3.5305122000         0.4446345400 
s   3 1.0  
        2.9412494000        -0.0999672301 
        0.6834831000         0.3995128303 
        0.2222899000         0.7001154705 
p   3 1.0  
        2.9412494000         0.1559162721 
        0.6834831000         0.6076837282 
        0.2222899000         0.3919573953 

  5 0 
s   3 1.0  
       71.6168370000         0.1543289700 
       13.0450960000         0.5353281400 
        3.5305122000         0.4446345400 
s   3 1.0  
        2.9412494000        -0.0999672301 
        0.6834831000         0.3995128303 
        0.2222899000         0.7001154705 
p   3 1.0  
        2.9412494000         0.1559162721 
        0.6834831000         0.6076837282 
        0.2222899000         0.3919573953 

  6 0 
s   3 1.0  
       71.6168370000         0.1543289700 
       13.0450960000         0.5353281400 
        3.5305122000         0.4446345400 
s   3 1.0  
        2.9412494000        -0.0999672301 
        0.6834831000         0.3995128303 
        0.2222899000         0.7001154705 
p   3 1.0  
        2.9412494000         0.1559162721 
        0.6834831000         0.6076837282 
        0.2222899000         0.3919573953 

  7 0 
s   3 1.0  
        3.4252509100         0.1543289707 
        0.6239137300         0.5353281424 
        0.1688554000         0.4446345420 

  8 0 
s   3 1.0  
        3.4252509100         0.1543289707 
        0.6239137300         0.5353281424 
        0.1688554000         0.4446345420 

  9 0 
s   3 1.0  
        3.4252509100         0.1543289707 
        0.6239137300         0.5353281424 
        0.1688554000         0.4446345420 

 10 0 
s   3 1.0  
        3.4252509100         0.1543289707 
        0.6239137300         0.5353281424 
        0.1688554000         0.4446345420 

 11 0 
s   3 1.0  
        3.4252509100         0.1543289707 
        0.6239137300         0.5353281424 
        0.1688554000         0.4446345420 

 12 0 
s   3 1.0  
        3.4252509100         0.1543289707 
        0.6239137300         0.5353281424 
        0.1688554000         0.4446345420 

[5D]
[9G]
[MO]
 Sym=     1a
 Ene= -1.10291813900000E+01
 Spin= Alpha
 Occup= 2.000000
  1      -0.573016772500
  2      -0.016873623900
  3      -0.000000003300
  4      -0.000515916400
  5       0.000000000000
  6      -0.286506116600
  7      -0.008436701100
  8      -0.001861172900
  9       0.002707709700
 10       0.000000000000
 11       0.286506988600
 12       0.008436726700
 13       0.001861171900
 14       0.002707706400
 15       0.000000000000
 16       0.573016772500
 17       0.016873623900
 18      -0.000000003300
 19      -0.000515916400
 20       0.000000000000
 21       0.286506116600
 22       0.008436701100
 23      -0.001861172900
 24       0.002707709700
 25       0.000000000000
 26      -0.286506988600
 27      -0.008436726700
 28       0.001861171900
 29       0.002707706400
 30       0.000000000000
 31       0.003820789600
 32       0.001910377400
 33      -0.001910383200
 34      -0.003820789600
 35      -0.001910377400
 36       0.001910383200
 Sym=     1a
 Ene= -1.10291813900000E+01
 Spin= Alpha
 Occup= 2.000000
  1      -0.000000503400
  2      -0.000000014800
  3       0.003782256500
  4      -0.000000000500
  5       0.000000000000
  6      -0.496246275100
  7      -0.014612937100
  8       0.000558620900
  9      -0.001861163800
 10       0.000000000000
 11      -0.496245771600
 12      -0.014612922300
 13       0.000558624200
 14       0.001861168500
 15       0.000000000000
 16       0.000000503500
 17       0.000000014800
 18       0.003782256500
 19      -0.000000000500
 20       0.000000000000
 21       0.496246275100
 22       0.014612937100
 23       0.000558620900
 24      -0.001861163800
 25       0.000000000000
 26       0.496245771700
 27       0.014612922300
 28       0.000558624200
 29       0.001861168500
 30       0.000000000000
 31       0.000000003400
 32       0.003308892900
 33       0.003308889500
 34      -0.000000003400
 35      -0.003308892900
 36      -0.003308889500
 Sym=     1a
 Ene= -1.10291671300000E+01
 Spin= Alpha
 Occup= 2.000000
  1       0.405405514500
  2       0.009212981000
  3       0.000000000000
  4       0.001539407900
  5       0.000000000000
  6       0.405400738400
  7       0.009212769200
  8       0.001333189400
  9       0.000769695300
 10       0.000000000000
 11       0.405400738400
 12       0.009212769200
 13       0.001333189400
 14      -0.000769695300
 15       0.000000000000
 16       0.405405514500
 17       0.009212981000
 18       0.000000000000
 19      -0.001539407900
 20       0.000000000000
 21       0.405400738300
 22       0.009212769200
 23      -0.001333189400
 24      -0.000769695300
 25       0.000000000000
 26       0.405400738300
 27       0.009212769200
 28      -0.001333189400
 29       0.000769695300
 30       0.000000000000
 31      -0.002827135100
 32      -0.002827100100
 33      -0.002827100100
 34      -0.002827135100
 35      -0.002827100100
 36      -0.002827100100
 Sym=     1a
 Ene= -1.10287947900000E+01
 Spin= Alpha
 Occup= 2.000000
  1       0.572598628200
  2       0.025102658800
  3       0.000000000000
  4      -0.001953024100
  5       0.000000000000
  6      -0.286302696200
  7      -0.012551405100
  8       0.002544933600
  9      -0.002454955700
 10       0.000000000000
 11      -0.286302696200
 12      -0.012551405100
 13       0.002544933600
 14       0.002454955700
 15       0.000000000000
 16       0.572598628200
 17       0.025102658800
 18       0.000000000000
 19       0.001953024100
 20       0.000000000000
 21      -0.286302696200
 22      -0.012551405100
 23      -0.002544933600
 24       0.002454955700
 25       0.000000000000
 26      -0.286302696200
 27      -0.012551405100
 28      -0.002544933600
 29      -0.002454955700
 30       0.000000000000
 31      -0.004000336600
 32       0.002000190900
 33       0.002000190900
 34      -0.004000336600
 35       0.002000190900
 36       0.002000190900
 Sym=     1a
 Ene= -1.10287947900000E+01
 Spin= Alpha
 Occup= 2.000000
  1       0.000000000000
  2       0.000000000000
  3      -0.003924273100
  4       0.000000000000
  5       0.000000000000
  6       0.495886910900
  7       0.021739580400
  8      -0.000483694400
  9      -0.002544940900
 10       0.000000000000
 11      -0.495886910900
 12      -0.021739580400
 13       0.000483694400
 14      -0.002544940900
 15       0.000000000000
 16       0.000000000000
 17       0.000000000000
 18       0.003924273100
 19       0.000000000000
 20       0.000000000000
 21       0.495886911000
 22       0.021739580400
 23       0.000483694400
 24       0.002544940900
 25       0.000000000000
 26      -0.495886910900
 27      -0.021739580400
 28      -0.000483694400
 29       0.002544940900
 30       0.000000000000
 31       0.000000000000
 32      -0.003464404700
 33       0.003464404700
 34       0.000000000000
 35      -0.003464404700
 36       0.003464404700
 Sym=     1a
 Ene= -1.10286358300000E+01
 Spin= Alpha
 Occup= 2.000000
  1      -0.404733801400
  2      -0.021096375700
  3       0.000000000000
  4       0.002475285400
  5       0.000000000000
  6       0.404736397800
  7       0.021096448800
  8      -0.002143653800
  9      -0.001237649700
 10       0.000000000000
 11      -0.404736397800
 12      -0.021096448800
 13       0.002143653800
 14      -0.001237649800
 15       0.000000000000
 16       0.404733801300
 17       0.021096375700
 18       0.000000000000
 19       0.002475285400
 20       0.000000000000
 21      -0.404736397800
 22      -0.021096448800
 23      -0.002143653800
 24      -0.001237649700
 25       0.000000000000
 26       0.404736397800
 27       0.021096448800
 28       0.002143653800
 29      -0.001237649700
 30       0.000000000000
 31       0.002927536300
 32      -0.002927552000
 33       0.002927552000
 34      -0.002927536300
 35       0.002927552000
 36      -0.002927552000
 Sym=     1a
 Ene= -1.09384738000000E+00
 Spin= Alpha
 Occup= 2.000000
  1      -0.104837127400
  2       0.263926538700
  3       0.000000000000
  4      -0.062300204300
  5       0.000000000000
  6      -0.104837102900
  7       0.263926489700
  8      -0.053953573700
  9      -0.031150082200
 10       0.000000000000
 11      -0.104837102900
 12       0.263926489700
 13      -0.053953573700
 14       0.031150082200
 15       0.000000000000
 16      -0.104837127400
 17       0.263926538700
 18       0.000000000000
 19       0.062300204300
 20       0.000000000000
 21      -0.104837102900
 22       0.263926489700
 23       0.053953573700
 24       0.031150082200
 25       0.000000000000
 26      -0.104837102900
 27       0.263926489700
 28       0.053953573700
 29      -0.031150082200
 30       0.000000000000
 31       0.046833854400
 32       0.046833808700
 33       0.046833808700
 34       0.046833854400
 35       0.046833808700
 36       0.046833808700
 Sym=     1a
 Ene= -9.57316330000000E-01
 Spin= Alpha
 Occup= 2.000000
  1       0.146717381000
  2      -0.394244665300
  3       0.000000000900
  4       0.027860622200
  5       0.000000000000
  6       0.073358677800
  7      -0.197122305000
  8       0.068760852400
  9      -0.091236609800
 10       0.000000000000
 11      -0.073358679600
 12       0.197122309700
 13      -0.068760852300
 14      -0.091236608900
 15       0.000000000000
 16      -0.146717381000
 17       0.394244665300
 18       0.000000000900
 19       0.027860622200
 20       0.000000000000
 21      -0.073358677800
 22       0.197122305000
 23       0.068760852400
 24      -0.091236609800
 25       0.000000000000
 26       0.073358679600
 27      -0.197122309700
 28      -0.068760852300
 29      -0.091236608900
 30       0.000000000000
 31      -0.108755617700
 32      -0.054377755200
 33       0.054377756500
 34       0.108755617700
 35       0.054377755200
 36      -0.054377756500
 Sym=     1a
 Ene= -9.57316230000000E-01
 Spin= Alpha
 Occup= 2.000000
  1      -0.000000001000
  2       0.000000002800
  3       0.130935737100
  4      -0.000000000200
  5       0.000000000000
  6      -0.127060967800
  7       0.341425908000
  8       0.011838446900
  9      -0.068760828900
 10       0.000000000000
 11      -0.127060966800
 12       0.341425905200
 13       0.011838447800
 14       0.068760830200
 15       0.000000000000
 16       0.000000001000
 17      -0.000000002800
 18       0.130935737100
 19      -0.000000000200
 20       0.000000000000
 21       0.127060967800
 22      -0.341425908000
 23       0.011838446900
 24      -0.068760828900
 25       0.000000000000
 26       0.127060966800
 27      -0.341425905200
 28       0.011838447800
 29       0.068760830200
 30       0.000000000000
 31       0.000000000800
 32       0.094185090000
 33       0.094185089200
 34      -0.000000000800
 35      -0.094185090000
 36      -0.094185089200
 Sym=     1a
 Ene= -7.68890650000000E-01
 Spin= Alpha
 Occup= 2.000000
  1      -0.114296817500
  2       0.335323164800
  3       0.000000002900
  4       0.084212214800
  5       0.000000000000
  6       0.057148412600
  7      -0.167661614800
  8      -0.136875091000
  9       0.152862741000
 10       0.000000000000
 11       0.057148415100
 12      -0.167661622000
 13      -0.136875091100
 14      -0.152862737600
 15       0.000000000000
 16      -0.114296817500
 17       0.335323164800
 18      -0.000000002900
 19      -0.084212214800
 20       0.000000000000
 21       0.057148412600
 22      -0.167661614800
 23       0.136875091000
 24      -0.152862741000
 25       0.000000000000
 26       0.057148415100
 27      -0.167661622000
 28       0.136875091100
 29       0.152862737600
 30       0.000000000000
 31       0.177880171600
 32      -0.088939986600
 33      -0.088939990500
 34       0.177880171600
 35      -0.088939986600
 36      -0.088939990500
 Sym=     1a
 Ene= -7.68890590000000E-01
 Spin= Alpha
 Occup= 2.000000
  1       0.000000001400
  2      -0.000000004200
  3       0.231887704100
  4      -0.000000001000
  5       0.000000000000
  6      -0.098983957000
  7       0.290398438800
  8       0.005187117300
  9       0.136875183300
 10       0.000000000000
 11       0.098983955600
 12      -0.290398434600
 13      -0.005187113800
 14       0.136875187100
 15       0.000000000000
 16       0.000000001400
 17      -0.000000004200
 18      -0.231887704100
 19       0.000000001000
 20       0.000000000000
 21      -0.098983957000
 22       0.290398438800
 23      -0.005187117300
 24      -0.136875183300
 25       0.000000000000
 26       0.098983955600
 27      -0.290398434600
 28       0.005187113800
 29      -0.136875187100
 30       0.000000000000
 31      -0.000000002200
 32       0.154048628300
 33      -0.154048626100
 34      -0.000000002200
 35       0.154048628300
 36      -0.154048626100
 Sym=     1a
 Ene= -6.65289360000000E-01
 Spin= Alpha
 Occup= 2.000000
  1       0.009103278200
  2      -0.037160253400
  3       0.000000000000
  4      -0.234201235700
  5       0.000000000000
  6       0.009103346400
  7      -0.037160470200
  8      -0.202824248800
  9      -0.117100420700
 10       0.000000000000
 11       0.009103346400
 12      -0.037160470200
 13      -0.202824248800
 14       0.117100420700
 15       0.000000000000
 16       0.009103278200
 17      -0.037160253400
 18       0.000000000000
 19       0.234201235700
 20       0.000000000000
 21       0.009103346400
 22      -0.037160470200
 23       0.202824248800
 24       0.117100420700
 25       0.000000000000
 26       0.009103346400
 27      -0.037160470200
 28       0.202824248800
 29      -0.117100420700
 30       0.000000000000
 31      -0.174942060000
 32      -0.174942079200
 33      -0.174942079200
 34      -0.174942060000
 35      -0.174942079200
 36      -0.174942079200
 Sym=     1a
 Ene= -5.95059630000000E-01
 Spin= Alpha
 Occup= 2.000000
  1      -0.065235597800
  2       0.218457314800
  3       0.000000000000
  4       0.164446228500
  5       0.000000000000
  6       0.065235676800
  7      -0.218457601400
  8      -0.142413962900
  9      -0.082222860100
 10       0.000000000000
 11      -0.065235676800
 12       0.218457601400
 13       0.142413962900
 14      -0.082222860100
 15       0.000000000000
 16       0.065235597800
 17      -0.218457314800
 18       0.000000000000
 19       0.164446228500
 20       0.000000000000
 21      -0.065235676800
 22       0.218457601400
 23      -0.142413962900
 24      -0.082222860100
 25       0.000000000000
 26       0.065235676800
 27      -0.218457601400
 28       0.142413962900
 29      -0.082222860100
 30       0.000000000000
 31       0.232074829900
 32      -0.232074359300
 33       0.232074359300
 34      -0.232074829900
 35       0.232074359300
 36      -0.232074359300
 Sym=     1a
 Ene= -5.56038360000000E-01
 Spin= Alpha
 Occup= 2.000000
  1       0.000000000000
  2       0.000000000000
  3       0.332143181500
  4       0.000000000000
  5       0.000000000000
  6      -0.000000029400
  7       0.000000076800
  8      -0.166071787900
  9       0.287644085300
 10       0.000000000000
 11      -0.000000029400
 12       0.000000076800
 13      -0.166071787900
 14      -0.287644085300
 15       0.000000000000
 16       0.000000000000
 17       0.000000000000
 18       0.332143181500
 19       0.000000000000
 20       0.000000000000
 21       0.000000029400
 22      -0.000000076800
 23      -0.166071787900
 24       0.287644085300
 25       0.000000000000
 26       0.000000029400
 27      -0.000000076800
 28      -0.166071787900
 29      -0.287644085300
 30       0.000000000000
 31       0.000000000000
 32      -0.000000305300
 33      -0.000000305300
 34       0.000000000000
 35       0.000000305300
 36       0.000000305300
 Sym=     1a
 Ene= -5.36000220000000E-01
 Spin= Alpha
 Occup= 2.000000
  1       0.026801644100
  2      -0.084315390700
  3       0.000000000000
  4       0.369628707600
  5       0.000000000000
  6       0.013400712700
  7      -0.042157291900
  8       0.204191940300
  9       0.015958475400
 10       0.000000000000
 11      -0.013400712700
 12       0.042157291900
 13      -0.204191940300
 14       0.015958475400
 15       0.000000000000
 16      -0.026801644100
 17       0.084315390700
 18       0.000000000000
 19       0.369628707600
 20       0.000000000000
 21      -0.013400712700
 22       0.042157291900
 23       0.204191940300
 24       0.015958475400
 25       0.000000000000
 26       0.013400712700
 27      -0.042157291900
 28      -0.204191940300
 29       0.015958475400
 30       0.000000000000
 31       0.282398248300
 32       0.141199573100
 33      -0.141199573100
 34      -0.282398248300
 35      -0.141199573100
 36       0.141199573100
 Sym=     1a
 Ene= -5.36000070000000E-01
 Spin= Alpha
 Occup= 2.000000
  1       0.000000000000
  2       0.000000000000
  3      -0.101931386800
  4       0.000000000000
  5       0.000000000000
  6       0.023210853300
  7      -0.073019087100
  8       0.251738544400
  9       0.204192094000
 10       0.000000000000
 11       0.023210853300
 12      -0.073019087100
 13       0.251738544400
 14      -0.204192094000
 15       0.000000000000
 16       0.000000000000
 17       0.000000000000
 18      -0.101931386800
 19       0.000000000000
 20       0.000000000000
 21      -0.023210853300
 22       0.073019087100
 23       0.251738544400
 24       0.204192094000
 25       0.000000000000
 26      -0.023210853300
 27       0.073019087100
 28       0.251738544400
 29      -0.204192094000
 30       0.000000000000
 31       0.000000000000
 32       0.244564359000
 33       0.244564359000
 34       0.000000000000
 35      -0.244564359000
 36      -0.244564359000
 Sym=     1a
 Ene= -4.59351980000000E-01
 Spin= Alpha
 Occup= 2.000000
  1       0.000000000000
  2       0.000000000000
  3       0.000000000000
  4       0.000000000000
  5       0.333643497300
  6       0.000000000000
  7       0.000000000000
  8       0.000000000000
  9       0.000000000000
 10       0.333643443400
 11       0.000000000000
 12       0.000000000000
 13       0.000000000000
 14       0.000000000000
 15       0.333643443400
 16       0.000000000000
 17       0.000000000000
 18       0.000000000000
 19       0.000000000000
 20       0.333643497300
 21       0.000000000000
 22       0.000000000000
 23       0.000000000000
 24       0.000000000000
 25       0.333643443400
 26       0.000000000000
 27       0.000000000000
 28       0.000000000000
 29       0.000000000000
 30       0.333643443400
 31       0.000000000000
 32       0.000000000000
 33       0.000000000000
 34       0.000000000000
 35       0.000000000000
 36       0.000000000000
 Sym=     1a
 Ene= -4.33969590000000E-01
 Spin= Alpha
 Occup= 2.000000
  1      -0.007789326200
  2       0.016641682400
  3       0.000000000000
  4      -0.282570482700
  5       0.000000000000
  6       0.003894654400
  7      -0.008320806500
  8      -0.022256002500
  9       0.321119240300
 10       0.000000000000
 11       0.003894654400
 12      -0.008320806500
 13      -0.022256002500
 14      -0.321119240300
 15       0.000000000000
 16      -0.007789326200
 17       0.016641682400
 18       0.000000000000
 19       0.282570482700
 20       0.000000000000
 21       0.003894654400
 22      -0.008320806500
 23       0.022256002500
 24      -0.321119240300
 25       0.000000000000
 26       0.003894654400
 27      -0.008320806500
 28       0.022256002500
 29       0.321119240300
 30       0.000000000000
 31      -0.298228452700
 32       0.149114308300
 33       0.149114308300
 34      -0.298228452700
 35       0.149114308300
 36       0.149114308300
 Sym=     1a
 Ene= -4.33969580000000E-01
 Spin= Alpha
 Occup= 2.000000
  1       0.000000000000
  2       0.000000000000
  3       0.333968681400
  4       0.000000000000
  5       0.000000000000
  6      -0.006745730500
  7       0.014411993200
  8      -0.295420077500
  9       0.022256073300
 10       0.000000000000
 11       0.006745730500
 12      -0.014411993200
 13       0.295420077500
 14       0.022256073300
 15       0.000000000000
 16       0.000000000000
 17       0.000000000000
 18      -0.333968681400
 19       0.000000000000
 20       0.000000000000
 21      -0.006745730500
 22       0.014411993200
 23       0.295420077500
 24      -0.022256073300
 25       0.000000000000
 26       0.006745730500
 27      -0.014411993200
 28      -0.295420077500
 29      -0.022256073300
 30       0.000000000000
 31       0.000000000000
 32      -0.258273531500
 33       0.258273531500
 34       0.000000000000
 35      -0.258273531500
 36       0.258273531500
 Sym=     1a
 Ene= -2.81784960000000E-01
 Spin= Alpha
 Occup= 2.000000
  1       0.000000000000
  2       0.000000000000
  3       0.000000000000
  4       0.000000000000
  5       0.531404863000
  6       0.000000000000
  7       0.000000000000
  8       0.000000000000
  9       0.000000000000
 10       0.265702438600
 11       0.000000000000
 12       0.000000000000
 13       0.000000000000
 14       0.000000000000
 15      -0.265702427100
 16       0.000000000000
 17       0.000000000000
 18       0.000000000000
 19       0.000000000000
 20      -0.531404863000
 21       0.000000000000
 22       0.000000000000
 23       0.000000000000
 24       0.000000000000
 25      -0.265702438600
 26       0.000000000000
 27       0.000000000000
 28       0.000000000000
 29       0.000000000000
 30       0.265702427100
 31       0.000000000000
 32       0.000000000000
 33       0.000000000000
 34       0.000000000000
 35       0.000000000000
 36       0.000000000000
 Sym=     1a
 Ene= -2.81784870000000E-01
 Spin= Alpha
 Occup= 2.000000
  1       0.000000000000
  2       0.000000000000
  3       0.000000000000
  4       0.000000000000
  5       0.000000006600
  6       0.000000000000
  7       0.000000000000
  8       0.000000000000
  9       0.000000000000
 10      -0.460210129200
 11       0.000000000000
 12       0.000000000000
 13       0.000000000000
 14       0.000000000000
 15      -0.460210135800
 16       0.000000000000
 17       0.000000000000
 18       0.000000000000
 19       0.000000000000
 20      -0.000000006600
 21       0.000000000000
 22       0.000000000000
 23       0.000000000000
 24       0.000000000000
 25       0.460210129200
 26       0.000000000000
 27       0.000000000000
 28       0.000000000000
 29       0.000000000000
 30       0.460210135800
 31       0.000000000000
 32       0.000000000000
 33       0.000000000000
 34       0.000000000000
 35       0.000000000000
 36       0.000000000000
 Sym=     1a
 Ene=  2.69956940000000E-01
 Spin= Alpha
 Occup= 0.000000
  1       0.000000000000
  2       0.000000000000
  3       0.000000000000
  4       0.000000000000
  5      -0.000000020200
  6       0.000000000000
  7       0.000000000000
  8       0.000000000000
  9       0.000000000000
 10       0.570874409400
 11       0.000000000000
 12       0.000000000000
 13       0.000000000000
 14       0.000000000000
 15      -0.570874389200
 16       0.000000000000
 17       0.000000000000
 18       0.000000000000
 19       0.000000000000
 20      -0.000000020200
 21       0.000000000000
 22       0.000000000000
 23       0.000000000000
 24       0.000000000000
 25       0.570874409400
 26       0.000000000000
 27       0.000000000000
 28       0.000000000000
 29       0.000000000000
 30      -0.570874389200
 31       0.000000000000
 32       0.000000000000
 33       0.000000000000
 34       0.000000000000
 35       0.000000000000
 36       0.000000000000
 Sym=     1a
 Ene=  2.69956980000000E-01
 Spin= Alpha
 Occup= 0.000000
  1       0.000000000000
  2       0.000000000000
  3       0.000000000000
  4       0.000000000000
  5       0.659188979900
  6       0.000000000000
  7       0.000000000000
  8       0.000000000000
  9       0.000000000000
 10      -0.329594507400
 11       0.000000000000
 12       0.000000000000
 13       0.000000000000
 14       0.000000000000
 15      -0.329594542400
 16       0.000000000000
 17       0.000000000000
 18       0.000000000000
 19       0.000000000000
 20       0.659188979900
 21       0.000000000000
 22       0.000000000000
 23       0.000000000000
 24       0.000000000000
 25      -0.329594507400
 26       0.000000000000
 27       0.000000000000
 28       0.000000000000
 29       0.000000000000
 30      -0.329594542400
 31       0.000000000000
 32       0.000000000000
 33       0.000000000000
 34       0.000000000000
 35       0.000000000000
 36       0.000000000000
 Sym=     1a
 Ene=  5.07125100000000E-01
 Spin= Alpha
 Occup= 0.000000
  1       0.000000000000
  2       0.000000000000
  3       0.000000000000
  4       0.000000000000
  5       0.523665915300
  6       0.000000000000
  7       0.000000000000
  8       0.000000000000
  9       0.000000000000
 10      -0.523665884100
 11       0.000000000000
 12       0.000000000000
 13       0.000000000000
 14       0.000000000000
 15       0.523665884100
 16       0.000000000000
 17       0.000000000000
 18       0.000000000000
 19       0.000000000000
 20      -0.523665915300
 21       0.000000000000
 22       0.000000000000
 23       0.000000000000
 24       0.000000000000
 25       0.523665884100
 26       0.000000000000
 27       0.000000000000
 28       0.000000000000
 29       0.000000000000
 30      -0.523665884100
 31       0.000000000000
 32       0.000000000000
 33       0.000000000000
 34       0.000000000000
 35       0.000000000000
 36       0.000000000000
 Sym=     1a
 Ene=  5.81577310000000E-01
 Spin= Alpha
 Occup= 0.000000
  1       0.052686941300
  2      -0.335924720600
  3       0.000000000000
  4      -0.316042714700
  5       0.000000000000
  6       0.052687176500
  7      -0.335926036200
  8      -0.273701245100
  9      -0.158021764100
 10       0.000000000000
 11       0.052687176500
 12      -0.335926036200
 13      -0.273701245100
 14       0.158021764100
 15       0.000000000000
 16       0.052686941300
 17      -0.335924720600
 18       0.000000000000
 19       0.316042714700
 20       0.000000000000
 21       0.052687176500
 22      -0.335926036200
 23       0.273701245100
 24       0.158021764100
 25       0.000000000000
 26       0.052687176500
 27      -0.335926036200
 28       0.273701245100
 29      -0.158021764100
 30       0.000000000000
 31       0.513254883100
 32       0.513255788400
 33       0.513255788400
 34       0.513254883100
 35       0.513255788400
 36       0.513255788400
 Sym=     1a
 Ene=  6.51539990000000E-01
 Spin= Alpha
 Occup= 0.000000
  1       0.000000000000
  2       0.000000000000
  3       0.324327809100
  4       0.000000000000
  5       0.000000000000
  6      -0.026126126000
  7       0.171495016600
  8       0.498506772900
  9       0.100562158200
 10       0.000000000000
 11      -0.026126126000
 12       0.171495016600
 13       0.498506772900
 14      -0.100562158200
 15       0.000000000000
 16       0.000000000000
 17       0.000000000000
 18       0.324327809100
 19       0.000000000000
 20       0.000000000000
 21       0.026126126000
 22      -0.171495016600
 23       0.498506772900
 24       0.100562158200
 25       0.000000000000
 26       0.026126126000
 27      -0.171495016600
 28       0.498506772900
 29      -0.100562158200
 30       0.000000000000
 31       0.000000000000
 32      -0.568721251900
 33      -0.568721251900
 34       0.000000000000
 35       0.568721251900
 36       0.568721251900
 Sym=     1a
 Ene=  6.51540110000000E-01
 Spin= Alpha
 Occup= 0.000000
  1       0.030167586300
  2      -0.198023877500
  3       0.000000000000
  4      -0.556566043400
  5       0.000000000000
  6       0.015084101900
  7      -0.099013789400